created by fftool

12258 atoms
11367 bonds
19629 angles
18009 dihedrals
21 atom types
18 bond types
30 angle types
29 dihedral types
0.000000 50.000000 xlo xhi
0.000000 50.000000 ylo yhi
0.000000 50.000000 zlo zhi

Masses

   1    1.008  # H00
   2   12.011  # C01
   3   12.011  # C02
   4    1.008  # H03
   5    1.008  # H04
   6   15.999  # O05
   7    1.008  # H06
   8    1.008  # H07
   9   12.011  # C08
  10   15.999  # O09
  11   15.999  # O0A
  12   12.011  # C0B
  13   12.011  # C0C
  14    1.008  # H0D
  15    1.008  # H0E
  16    1.008  # H0F
  17    1.008  # H0G
  18    1.008  # H0H
  19    6.941  # Li
  20   30.974  # P
  21   18.998  # FP

Bond Coeffs

   1   339.997610     1.090000  # C01-H00
   2   267.997132     1.529000  # C02-C01
   3   339.997610     1.090000  # H03-C01
   4   339.997610     1.090000  # H04-C01
   5   320.004780     1.410000  # O05-C02
   6   339.997610     1.090000  # H06-C02
   7   339.997610     1.090000  # H07-C02
   8   214.005736     1.327000  # C08-O05
   9   214.005736     1.327000  # O09-C08
  10   570.004780     1.229000  # O0A-C08
  11   320.004780     1.410000  # C0B-O09
  12   267.997132     1.529000  # C0C-C0B
  13   339.997610     1.090000  # H0D-C0B
  14   339.997610     1.090000  # H0E-C0B
  15   339.997610     1.090000  # H0F-C0C
  16   339.997610     1.090000  # H0G-C0C
  17   339.997610     1.090000  # H0H-C0C
  18   370.458891     1.606000  # P-F

Angle Coeffs

   1    37.500000   110.700000  # H00-C01-C02
   2    32.994742   107.800000  # H00-C01-H03
   3    32.994742   107.800000  # H00-C01-H04
   4    37.500000   110.700000  # C02-C01-H03
   5    37.500000   110.700000  # C02-C01-H04
   6    32.994742   107.800000  # H03-C01-H04
   7    50.000000   109.500000  # C01-C02-O05
   8    37.500000   110.700000  # C01-C02-H06
   9    37.500000   110.700000  # C01-C02-H07
  10    35.002390   109.500000  # O05-C02-H06
  11    35.002390   109.500000  # O05-C02-H07
  12    32.994742   107.800000  # H06-C02-H07
  13    82.994742   116.900000  # C02-O05-C08
  14    69.897228   118.200000  # O05-C08-O09
  15    82.994742   123.400000  # O05-C08-O0A
  16    82.994742   123.400000  # O09-C08-O0A
  17    82.994742   116.900000  # C08-O09-C0B
  18    50.000000   109.500000  # O09-C0B-C0C
  19    35.002390   109.500000  # O09-C0B-H0D
  20    35.002390   109.500000  # O09-C0B-H0E
  21    37.500000   110.700000  # C0C-C0B-H0D
  22    37.500000   110.700000  # C0C-C0B-H0E
  23    32.994742   107.800000  # H0D-C0B-H0E
  24    37.500000   110.700000  # C0B-C0C-H0F
  25    37.500000   110.700000  # C0B-C0C-H0G
  26    37.500000   110.700000  # C0B-C0C-H0H
  27    32.994742   107.800000  # H0F-C0C-H0G
  28    32.994742   107.800000  # H0F-C0C-H0H
  29    32.994742   107.800000  # H0G-C0C-H0H
  30   139.220841    90.000000  # F-P-F

Dihedral Coeffs

   1     0.701960     0.000000     0.935946     0.000000  # O05-C02-C01-H00
   2     0.450048     0.000000     0.599904     0.000000  # H06-C02-C01-H00
   3     0.450048     0.000000     0.599904     0.000000  # H07-C02-C01-H00
   4     0.701960     0.000000     0.935946     0.000000  # O05-C02-C01-H03
   5     0.450048     0.000000     0.599904     0.000000  # H06-C02-C01-H03
   6     0.450048     0.000000     0.599904     0.000000  # H07-C02-C01-H03
   7     0.701960     0.000000     0.935946     0.000000  # O05-C02-C01-H04
   8     0.450048     0.000000     0.599904     0.000000  # H06-C02-C01-H04
   9     0.450048     0.000000     0.599904     0.000000  # H07-C02-C01-H04
  10     1.243069     0.125956     0.843929     0.000000  # C08-O05-C02-C01
  11     0.297084     0.000000     0.396033     0.000000  # C08-O05-C02-H06
  12     0.297084     0.000000     0.396033     0.000000  # C08-O05-C02-H07
  13     2.334608     5.124044     0.000000     0.000000  # O09-C08-O05-C02
  14     0.000000     5.124044     0.000000     0.000000  # O0A-C08-O05-C02
  15     2.334608     5.124044     0.000000     0.000000  # C0B-O09-C08-O05
  16     0.000000     5.124044     0.000000     0.000000  # C0B-O09-C08-O0A
  17     1.243069     0.125956     0.843929     0.000000  # C0C-C0B-O09-C08
  18     0.297084     0.000000     0.396033     0.000000  # H0D-C0B-O09-C08
  19     0.297084     0.000000     0.396033     0.000000  # H0E-C0B-O09-C08
  20     0.701960     0.000000     0.935946     0.000000  # H0F-C0C-C0B-O09
  21     0.701960     0.000000     0.935946     0.000000  # H0G-C0C-C0B-O09
  22     0.701960     0.000000     0.935946     0.000000  # H0H-C0C-C0B-O09
  23     0.450048     0.000000     0.599904     0.000000  # H0F-C0C-C0B-H0D
  24     0.450048     0.000000     0.599904     0.000000  # H0G-C0C-C0B-H0D
  25     0.450048     0.000000     0.599904     0.000000  # H0H-C0C-C0B-H0D
  26     0.450048     0.000000     0.599904     0.000000  # H0F-C0C-C0B-H0E
  27     0.450048     0.000000     0.599904     0.000000  # H0G-C0C-C0B-H0E
  28     0.450048     0.000000     0.599904     0.000000  # H0H-C0C-C0B-H0E
  29     0.000000    10.500000     0.000000     0.000000  # O05-O09-C08-O0A

Atoms

      1       1    1   0.102900  6.632353e+00  2.214673e+01  3.158461e+01  # H00 DEC
      2       1    2  -0.249200  7.373865e+00  2.170160e+01  3.225131e+01  # C01 DEC
      3       1    3   0.094200  7.932651e+00  2.041284e+01  3.162109e+01  # C02 DEC
      4       1    4   0.102900  8.167760e+00  2.243237e+01  3.241639e+01  # H03 DEC
      5       1    5   0.102900  6.888690e+00  2.148100e+01  3.320381e+01  # H04 DEC
      6       1    6  -0.373500  8.960646e+00  1.990431e+01  3.231993e+01  # O05 DEC
      7       1    7   0.089500  8.284472e+00  2.065439e+01  3.061305e+01  # H06 DEC
      8       1    8   0.089500  7.113751e+00  1.969218e+01  3.153479e+01  # H07 DEC
      9       1    9   0.671900  9.615182e+00  1.886442e+01  3.213101e+01  # C08 DEC
     10       1   10  -0.373100  1.073770e+01  1.881164e+01  3.266047e+01  # O09 DEC
     11       1   11  -0.590500  9.192946e+00  1.795947e+01  3.141662e+01  # O0A DEC
     12       1   12   0.093900  1.179548e+01  1.803772e+01  3.236116e+01  # C0B DEC
     13       1   13  -0.248900  1.297539e+01  1.825746e+01  3.332485e+01  # C0C DEC
     14       1   14   0.089400  1.213171e+01  1.828777e+01  3.134993e+01  # H0D DEC
     15       1   15   0.089400  1.152921e+01  1.697671e+01  3.237969e+01  # H0E DEC
     16       1   16   0.103000  1.384974e+01  1.770905e+01  3.296735e+01  # H0F DEC
     17       1   17   0.103000  1.323630e+01  1.931548e+01  3.338726e+01  # H0G DEC
     18       1   18   0.102700  1.272541e+01  1.789219e+01  3.432210e+01  # H0H DEC
     19       2    1   0.102900  1.714418e+01  3.786522e+01  2.380444e+01  # H00 DEC
     20       2    2  -0.249200  1.808385e+01  3.813988e+01  2.428820e+01  # C01 DEC
     21       2    3   0.094200  1.893543e+01  3.687906e+01  2.452370e+01  # C02 DEC
     22       2    4   0.102900  1.860571e+01  3.884958e+01  2.364359e+01  # H03 DEC
     23       2    5   0.102900  1.785065e+01  3.862533e+01  2.523756e+01  # H04 DEC
     24       2    6  -0.373500  2.016775e+01  3.716905e+01  2.497208e+01  # O05 DEC
     25       2    7   0.089500  1.902907e+01  3.635115e+01  2.356933e+01  # H06 DEC
     26       2    8   0.089500  1.839896e+01  3.623048e+01  2.522294e+01  # H07 DEC
     27       2    9   0.671900  2.109323e+01  3.640899e+01  2.530567e+01  # C08 DEC
     28       2   10  -0.373100  2.223653e+01  3.689482e+01  2.530789e+01  # O09 DEC
     29       2   11  -0.590500  2.089136e+01  3.522701e+01  2.556978e+01  # O0A DEC
     30       2   12   0.093900  2.343235e+01  3.628286e+01  2.525351e+01  # C0B DEC
     31       2   13  -0.248900  2.460491e+01  3.727561e+01  2.534672e+01  # C0C DEC
     32       2   14   0.089400  2.350816e+01  3.575649e+01  2.429677e+01  # H0D DEC
     33       2   15   0.089400  2.353925e+01  3.554785e+01  2.605682e+01  # H0E DEC
     34       2   16   0.103000  2.554629e+01  3.675129e+01  2.516798e+01  # H0F DEC
     35       2   17   0.103000  2.450637e+01  3.806686e+01  2.460133e+01  # H0G DEC
     36       2   18   0.102700  2.464549e+01  3.772451e+01  2.634034e+01  # H0H DEC
     37       3    1   0.102900  1.122798e+01  6.182366e+00  2.812924e+01  # H00 DEC
     38       3    2  -0.249200  1.223347e+01  5.769624e+00  2.802397e+01  # C01 DEC
     39       3    3   0.094200  1.282626e+01  5.483030e+00  2.941566e+01  # C02 DEC
     40       3    4   0.102900  1.216758e+01  4.855476e+00  2.743107e+01  # H03 DEC
     41       3    5   0.102900  1.284767e+01  6.497156e+00  2.749032e+01  # H04 DEC
     42       3    6  -0.373500  1.399751e+01  4.829173e+00  2.934932e+01  # O05 DEC
     43       3    7   0.089500  1.211272e+01  4.861188e+00  2.996560e+01  # H06 DEC
     44       3    8   0.089500  1.293038e+01  6.435053e+00  2.994500e+01  # H07 DEC
     45       3    9   0.671900  1.476718e+01  4.479482e+00  3.026081e+01  # C08 DEC
     46       3   10  -0.373100  1.556705e+01  3.567777e+00  2.999218e+01  # O09 DEC
     47       3   11  -0.590500  1.470391e+01  4.975971e+00  3.138201e+01  # O0A DEC
     48       3   12   0.093900  1.623785e+01  2.741052e+00  3.081315e+01  # C0B DEC
     49       3   13  -0.248900  1.718086e+01  1.793522e+00  3.005021e+01  # C0C DEC
     50       3   14   0.089400  1.551108e+01  2.130545e+00  3.135836e+01  # H0D DEC
     51       3   15   0.089400  1.682968e+01  3.300718e+00  3.154355e+01  # H0E DEC
     52       3   16   0.103000  1.760220e+01  1.059168e+00  3.074032e+01  # H0F DEC
     53       3   17   0.103000  1.664415e+01  1.257708e+00  2.926520e+01  # H0G DEC
     54       3   18   0.102700  1.800260e+01  2.354048e+00  2.960189e+01  # H0H DEC
     55       4    1   0.102900  2.416287e+01  3.609117e+01  3.150963e+01  # H00 DEC
     56       4    2  -0.249200  2.350397e+01  3.674568e+01  3.208402e+01  # C01 DEC
     57       4    3   0.094200  2.412826e+01  3.703262e+01  3.346179e+01  # C02 DEC
     58       4    4   0.102900  2.336173e+01  3.766883e+01  3.151913e+01  # H03 DEC
     59       4    5   0.102900  2.254048e+01  3.624579e+01  3.219858e+01  # H04 DEC
     60       4    6  -0.373500  2.344149e+01  3.795655e+01  3.415350e+01  # O05 DEC
     61       4    7   0.089500  2.514518e+01  3.740465e+01  3.330137e+01  # H06 DEC
     62       4    8   0.089500  2.419141e+01  3.608843e+01  3.401127e+01  # H07 DEC
     63       4    9   0.671900  2.362928e+01  3.839412e+01  3.530186e+01  # C08 DEC
     64       4   10  -0.373100  2.311904e+01  3.949547e+01  3.556614e+01  # O09 DEC
     65       4   11  -0.590500  2.432513e+01  3.779116e+01  3.611416e+01  # O0A DEC
     66       4   12   0.093900  2.342751e+01  4.037781e+01  3.653245e+01  # C0B DEC
     67       4   13  -0.248900  2.248744e+01  4.159659e+01  3.653677e+01  # C0C DEC
     68       4   14   0.089400  2.444744e+01  4.073612e+01  3.636070e+01  # H0D DEC
     69       4   15   0.089400  2.339145e+01  3.991208e+01  3.752178e+01  # H0E DEC
     70       4   16   0.103000  2.285359e+01  4.234141e+01  3.724687e+01  # H0F DEC
     71       4   17   0.103000  2.244245e+01  4.205808e+01  3.554865e+01  # H0G DEC
     72       4   18   0.102700  2.148159e+01  4.130036e+01  3.683835e+01  # H0H DEC
     73       5    1   0.102900  1.268123e+00  1.431796e+01  3.182621e+01  # H00 DEC
     74       5    2  -0.249200  1.466977e+00  1.496307e+01  3.268454e+01  # C01 DEC
     75       5    3   0.094200  2.849791e+00  1.562215e+01  3.253039e+01  # C02 DEC
     76       5    4   0.102900  6.783860e-01  1.571605e+01  3.273642e+01  # H03 DEC
     77       5    5   0.102900  1.434995e+00  1.435057e+01  3.358740e+01  # H04 DEC
     78       5    6  -0.373500  3.085140e+00  1.654708e+01  3.347530e+01  # O05 DEC
     79       5    7   0.089500  2.884451e+00  1.611026e+01  3.155120e+01  # H06 DEC
     80       5    8   0.089500  3.607779e+00  1.483312e+01  3.254706e+01  # H07 DEC
     81       5    9   0.671900  4.099897e+00  1.723513e+01  3.368107e+01  # C08 DEC
     82       5   10  -0.373100  3.941533e+00  1.827178e+01  3.434698e+01  # O09 DEC
     83       5   11  -0.590500  5.190774e+00  1.693019e+01  3.320717e+01  # O0A DEC
     84       5   12   0.093900  4.711366e+00  1.937120e+01  3.442499e+01  # C0B DEC
     85       5   13  -0.248900  4.166325e+00  2.039955e+01  3.543225e+01  # C0C DEC
     86       5   14   0.089400  4.739603e+00  1.984422e+01  3.343827e+01  # H0D DEC
     87       5   15   0.089400  5.736507e+00  1.911868e+01  3.471187e+01  # H0E DEC
     88       5   16   0.103000  4.746282e+00  2.132277e+01  3.536608e+01  # H0F DEC
     89       5   17   0.103000  3.121473e+00  2.063533e+01  3.522231e+01  # H0G DEC
     90       5   18   0.102700  4.247822e+00  2.001537e+01  3.645018e+01  # H0H DEC
     91       6    1   0.102900  4.815626e+01  4.759351e+00  4.088473e+01  # H00 DEC
     92       6    2  -0.249200  4.784276e+01  4.807323e+00  4.192966e+01  # C01 DEC
     93       6    3   0.094200  4.775955e+01  3.385130e+00  4.251341e+01  # C02 DEC
     94       6    4   0.102900  4.856768e+01  5.412898e+00  4.247675e+01  # H03 DEC
     95       6    5   0.102900  4.686700e+01  5.294576e+00  4.197195e+01  # H04 DEC
     96       6    6  -0.373500  4.753168e+01  3.386683e+00  4.383697e+01  # O05 DEC
     97       6    7   0.089500  4.871605e+01  2.886560e+00  4.232687e+01  # H06 DEC
     98       6    8   0.089500  4.697825e+01  2.840241e+00  4.197483e+01  # H07 DEC
     99       6    9   0.671900  4.736435e+01  2.433611e+00  4.461744e+01  # C08 DEC
    100       6   10  -0.373100  4.756027e+01  2.662554e+00  4.582258e+01  # O09 DEC
    101       6   11  -0.590500  4.707003e+01  1.313132e+00  4.421064e+01  # O0A DEC
    102       6   12   0.093900  4.782184e+01  1.810987e+00  4.682948e+01  # C0B DEC
    103       6   13  -0.248900  4.793288e+01  2.524908e+00  4.818858e+01  # C0C DEC
    104       6   14   0.089400  4.877758e+01  1.317824e+00  4.662575e+01  # H0D DEC
    105       6   15   0.089400  4.704979e+01  1.039791e+00  4.690810e+01  # H0E DEC
    106       6   16   0.103000  4.827269e+01  1.818217e+00  4.894896e+01  # H0F DEC
    107       6   17   0.103000  4.864929e+01  3.346969e+00  4.814005e+01  # H0G DEC
    108       6   18   0.102700  4.696108e+01  2.916081e+00  4.849355e+01  # H0H DEC
    109       7    1   0.102900  4.345285e+01  2.027442e+01  2.831451e+01  # H00 DEC
    110       7    2  -0.249200  4.434238e+01  2.011585e+01  2.770126e+01  # C01 DEC
    111       7    3   0.094200  4.396587e+01  2.018907e+01  2.621022e+01  # C02 DEC
    112       7    4   0.102900  4.507568e+01  2.088271e+01  2.795764e+01  # H03 DEC
    113       7    5   0.102900  4.475382e+01  1.913419e+01  2.794290e+01  # H04 DEC
    114       7    6  -0.373500  4.504218e+01  2.015831e+01  2.540751e+01  # O05 DEC
    115       7    7   0.089500  4.343439e+01  2.113107e+01  2.604155e+01  # H06 DEC
    116       7    8   0.089500  4.328061e+01  1.936478e+01  2.599030e+01  # H07 DEC
    117       7    9   0.671900  4.511011e+01  2.015434e+01  2.416620e+01  # C08 DEC
    118       7   10  -0.373100  4.619012e+01  2.051372e+01  2.366862e+01  # O09 DEC
    119       7   11  -0.590500  4.414288e+01  1.985871e+01  2.347002e+01  # O0A DEC
    120       7   12   0.093900  4.646103e+01  2.096176e+01  2.243035e+01  # C0B DEC
    121       7   13  -0.248900  4.796093e+01  2.123614e+01  2.222014e+01  # C0C DEC
    122       7   14   0.089400  4.591915e+01  2.190021e+01  2.227599e+01  # H0D DEC
    123       7   15   0.089400  4.613184e+01  2.024837e+01  2.166899e+01  # H0E DEC
    124       7   16   0.103000  4.811488e+01  2.171817e+01  2.125215e+01  # H0F DEC
    125       7   17   0.103000  4.834944e+01  2.189650e+01  2.299756e+01  # H0G DEC
    126       7   18   0.102700  4.852405e+01  2.030169e+01  2.223154e+01  # H0H DEC
    127       8    1   0.102900  4.068226e+01  4.592617e+01  2.155067e+01  # H00 DEC
    128       8    2  -0.249200  4.040739e+01  4.580716e+01  2.050055e+01  # C01 DEC
    129       8    3   0.094200  4.006483e+01  4.718009e+01  1.989389e+01  # C02 DEC
    130       8    4   0.102900  4.124749e+01  4.534689e+01  1.997718e+01  # H03 DEC
    131       8    5   0.102900  3.954499e+01  4.514035e+01  2.044621e+01  # H04 DEC
    132       8    6  -0.373500  3.987127e+01  4.712010e+01  1.856622e+01  # O05 DEC
    133       8    7   0.089500  4.090292e+01  4.785587e+01  2.009188e+01  # H06 DEC
    134       8    8   0.089500  3.918130e+01  4.756985e+01  2.040854e+01  # H07 DEC
    135       8    9   0.671900  3.954099e+01  4.801436e+01  1.776830e+01  # C08 DEC
    136       8   10  -0.373100  3.980434e+01  4.781433e+01  1.657089e+01  # O09 DEC
    137       8   11  -0.590500  3.902725e+01  4.906138e+01  1.815223e+01  # O0A DEC
    138       8   12   0.093900  3.991944e+01  4.868928e+01  1.555666e+01  # C0B DEC
    139       8   13  -0.248900  4.019642e+01  4.799536e+01  1.421096e+01  # C0C DEC
    140       8   14   0.089400  4.075744e+01  4.935980e+01  1.577191e+01  # H0D DEC
    141       8   15   0.089400  3.901523e+01  4.929611e+01  1.545108e+01  # H0E DEC
    142       8   16   0.103000  4.041066e+01  4.874596e+01  1.344693e+01  # H0F DEC
    143       8   17   0.103000  4.105652e+01  4.732756e+01  1.428612e+01  # H0G DEC
    144       8   18   0.102700  3.932528e+01  4.742070e+01  1.389265e+01  # H0H DEC
    145       9    1   0.102900  4.248810e+01  4.119953e+01  2.425702e+00  # H00 DEC
    146       9    2  -0.249200  4.249868e+01  4.225578e+01  2.148770e+00  # C01 DEC
    147       9    3   0.094200  4.327713e+01  4.306229e+01  3.204172e+00  # C02 DEC
    148       9    4   0.102900  4.296383e+01  4.234689e+01  1.165471e+00  # H03 DEC
    149       9    5   0.102900  4.146596e+01  4.260383e+01  2.088246e+00  # H04 DEC
    150       9    6  -0.373500  4.345956e+01  4.434198e+01  2.839658e+00  # O05 DEC
    151       9    7   0.089500  4.425870e+01  4.259459e+01  3.330838e+00  # H06 DEC
    152       9    8   0.089500  4.273839e+01  4.299104e+01  4.153951e+00  # H07 DEC
    153       9    9   0.671900  4.399810e+01  4.527696e+01  3.457125e+00  # C08 DEC
    154       9   10  -0.373100  4.438997e+01  4.623883e+01  2.775658e+00  # O09 DEC
    155       9   11  -0.590500  4.417749e+01  4.522738e+01  4.670776e+00  # O0A DEC
    156       9   12   0.093900  4.529972e+01  4.718541e+01  3.065107e+00  # C0B DEC
    157       9   13  -0.248900  4.543140e+01  4.823492e+01  1.946911e+00  # C0C DEC
    158       9   14   0.089400  4.627322e+01  4.670164e+01  3.193266e+00  # H0D DEC
    159       9   15   0.089400  4.505107e+01  4.770384e+01  3.995903e+00  # H0E DEC
    160       9   16   0.103000  4.626717e+01  4.890321e+01  2.165833e+00  # H0F DEC
    161       9   17   0.103000  4.561786e+01  4.775712e+01  9.834130e-01  # H0G DEC
    162       9   18   0.102700  4.452205e+01  4.883389e+01  1.878098e+00  # H0H DEC
    163      10    1   0.102900  6.003000e+00  4.796661e+01  2.838365e+01  # H00 DEC
    164      10    2  -0.249200  6.584848e+00  4.837959e+01  2.755699e+01  # C01 DEC
    165      10    3   0.094200  8.083376e+00  4.834727e+01  2.790868e+01  # C02 DEC
    166      10    4   0.102900  6.379705e+00  4.778590e+01  2.666424e+01  # H03 DEC
    167      10    5   0.102900  6.255325e+00  4.940599e+01  2.738604e+01  # H04 DEC
    168      10    6  -0.373500  8.861234e+00  4.869604e+01  2.687087e+01  # O05 DEC
    169      10    7   0.089500  8.339072e+00  4.732512e+01  2.820548e+01  # H06 DEC
    170      10    8   0.089500  8.246573e+00  4.900469e+01  2.876808e+01  # H07 DEC
    171      10    9   0.671900  1.009652e+01  4.882095e+01  2.680804e+01  # C08 DEC
    172      10   10  -0.373100  1.060260e+01  4.876676e+01  2.567485e+01  # O09 DEC
    173      10   11  -0.590500  1.078315e+01  4.894087e+01  2.781885e+01  # O0A DEC
    174      10   12   0.093900  1.186864e+01  4.850085e+01  2.530896e+01  # C0B DEC
    175      10   13  -0.248900  1.207377e+01  4.860254e+01  2.378687e+01  # C0C DEC
    176      10   14   0.089400  1.210998e+01  4.747849e+01  2.561669e+01  # H0D DEC
    177      10   15   0.089400  1.257409e+01  4.917975e+01  2.579724e+01  # H0E DEC
    178      10   16   0.103000  1.307543e+01  4.825352e+01  2.352627e+01  # H0F DEC
    179      10   17   0.103000  1.134686e+01  4.798748e+01  2.325331e+01  # H0G DEC
    180      10   18   0.102700  1.197484e+01  4.963809e+01  2.345784e+01  # H0H DEC
    181      11    1   0.102900  4.879054e+01  3.640878e+01  1.625886e+01  # H00 DEC
    182      11    2  -0.249200  4.831677e+01  3.737788e+01  1.608901e+01  # C01 DEC
    183      11    3   0.094200  4.681720e+01  3.728986e+01  1.642645e+01  # C02 DEC
    184      11    4   0.102900  4.881632e+01  3.811760e+01  1.671735e+01  # H03 DEC
    185      11    5   0.102900  4.845654e+01  3.764786e+01  1.504073e+01  # H04 DEC
    186      11    6  -0.373500  4.621183e+01  3.848811e+01  1.638812e+01  # O05 DEC
    187      11    7   0.089500  4.672167e+01  3.688541e+01  1.743915e+01  # H06 DEC
    188      11    8   0.089500  4.635151e+01  3.658530e+01  1.573065e+01  # H07 DEC
    189      11    9   0.671900  4.501629e+01  3.878230e+01  1.656023e+01  # C08 DEC
    190      11   10  -0.373100  4.477314e+01  3.996323e+01  1.685930e+01  # O09 DEC
    191      11   11  -0.590500  4.412891e+01  3.793682e+01  1.648743e+01  # O0A DEC
    192      11   12   0.093900  4.368988e+01  4.049624e+01  1.745080e+01  # C0B DEC
    193      11   13  -0.248900  4.378193e+01  4.202773e+01  1.757420e+01  # C0C DEC
    194      11   14   0.089400  4.360592e+01  4.007865e+01  1.845913e+01  # H0D DEC
    195      11   15   0.089400  4.277603e+01  4.024967e+01  1.690211e+01  # H0E DEC
    196      11   16   0.103000  4.294743e+01  4.239965e+01  1.817283e+01  # H0F DEC
    197      11   17   0.103000  4.471243e+01  4.232464e+01  1.806144e+01  # H0G DEC
    198      11   18   0.102700  4.373117e+01  4.249273e+01  1.658849e+01  # H0H DEC
    199      12    1   0.102900  3.643453e+01  3.531775e+01  4.774000e+01  # H00 DEC
    200      12    2  -0.249200  3.540650e+01  3.511170e+01  4.804525e+01  # C01 DEC
    201      12    3   0.094200  3.462479e+01  3.643269e+01  4.816456e+01  # C02 DEC
    202      12    4   0.102900  3.495357e+01  3.445510e+01  4.730008e+01  # H03 DEC
    203      12    5   0.102900  3.543213e+01  3.459560e+01  4.900665e+01  # H04 DEC
    204      12    6  -0.373500  3.331457e+01  3.623512e+01  4.838370e+01  # O05 DEC
    205      12    7   0.089500  3.474026e+01  3.698008e+01  4.722366e+01  # H06 DEC
    206      12    8   0.089500  3.507786e+01  3.702641e+01  4.896433e+01  # H07 DEC
    207      12    9   0.671900  3.240518e+01  3.706144e+01  4.857265e+01  # C08 DEC
    208      12   10  -0.373100  3.124576e+01  3.666804e+01  4.836256e+01  # O09 DEC
    209      12   11  -0.590500  3.264653e+01  3.821970e+01  4.890095e+01  # O0A DEC
    210      12   12   0.093900  3.012786e+01  3.737384e+01  4.811848e+01  # C0B DEC
    211      12   13  -0.248900  2.888535e+01  3.647618e+01  4.797861e+01  # C0C DEC
    212      12   14   0.089400  3.026112e+01  3.791833e+01  4.717830e+01  # H0D DEC
    213      12   15   0.089400  2.993769e+01  3.810334e+01  4.891134e+01  # H0E DEC
    214      12   16   0.103000  2.803238e+01  3.707620e+01  4.765385e+01  # H0F DEC
    215      12   17   0.103000  2.905290e+01  3.569045e+01  4.723973e+01  # H0G DEC
    216      12   18   0.102700  2.863725e+01  3.601764e+01  4.893705e+01  # H0H DEC
    217      13    1   0.102900  3.034873e+01  1.708013e+00  4.358615e+01  # H00 DEC
    218      13    2  -0.249200  2.940037e+01  1.639570e+00  4.304911e+01  # C01 DEC
    219      13    3   0.094200  2.872372e+01  3.021947e+00  4.301049e+01  # C02 DEC
    220      13    4   0.102900  2.960405e+01  1.275453e+00  4.204042e+01  # H03 DEC
    221      13    5   0.102900  2.876537e+01  9.185190e-01  4.356696e+01  # H04 DEC
    222      13    6  -0.373500  2.763111e+01  3.036341e+00  4.222962e+01  # O05 DEC
    223      13    7   0.089500  2.944564e+01  3.740707e+00  4.260988e+01  # H06 DEC
    224      13    8   0.089500  2.848379e+01  3.313388e+00  4.403756e+01  # H07 DEC
    225      13    9   0.671900  2.682538e+01  3.955817e+00  4.200415e+01  # C08 DEC
    226      13   10  -0.373100  2.614304e+01  3.854524e+00  4.097104e+01  # O09 DEC
    227      13   11  -0.590500  2.674607e+01  4.936215e+00  4.273907e+01  # O0A DEC
    228      13   12   0.093900  2.548920e+01  4.800567e+00  4.027466e+01  # C0B DEC
    229      13   13  -0.248900  2.470977e+01  4.218462e+00  3.908185e+01  # C0C DEC
    230      13   14   0.089400  2.622353e+01  5.512939e+00  3.988550e+01  # H0D DEC
    231      13   15   0.089400  2.478680e+01  5.347599e+00  4.091055e+01  # H0E DEC
    232      13   16   0.103000  2.430534e+01  5.031208e+00  3.847445e+01  # H0F DEC
    233      13   17   0.103000  2.535977e+01  3.609638e+00  3.845080e+01  # H0G DEC
    234      13   18   0.102700  2.387798e+01  3.605970e+00  3.943314e+01  # H0H DEC
    235      14    1   0.102900  3.258814e+01  3.035117e+01  1.339383e+01  # H00 DEC
    236      14    2  -0.249200  3.336073e+01  3.065976e+01  1.410118e+01  # C01 DEC
    237      14    3   0.094200  3.271287e+01  3.138256e+01  1.529623e+01  # C02 DEC
    238      14    4   0.102900  3.390023e+01  2.976905e+01  1.442846e+01  # H03 DEC
    239      14    5   0.102900  3.405302e+01  3.132543e+01  1.358260e+01  # H04 DEC
    240      14    6  -0.373500  3.359421e+01  3.164727e+01  1.627445e+01  # O05 DEC
    241      14    7   0.089500  3.193061e+01  3.073252e+01  1.570093e+01  # H06 DEC
    242      14    8   0.089500  3.224064e+01  3.229780e+01  1.492644e+01  # H07 DEC
    243      14    9   0.671900  3.343324e+01  3.224973e+01  1.734991e+01  # C08 DEC
    244      14   10  -0.373100  3.427100e+01  3.202895e+01  1.824018e+01  # O09 DEC
    245      14   11  -0.590500  3.246785e+01  3.298497e+01  1.753709e+01  # O0A DEC
    246      14   12   0.093900  3.418387e+01  3.221214e+01  1.956920e+01  # C0B DEC
    247      14   13  -0.248900  3.549418e+01  3.186281e+01  2.029736e+01  # C0C DEC
    248      14   14   0.089400  3.339528e+01  3.155964e+01  1.995718e+01  # H0D DEC
    249      14   15   0.089400  3.392101e+01  3.324622e+01  1.981119e+01  # H0E DEC
    250      14   16   0.103000  3.533658e+01  3.190111e+01  2.137752e+01  # H0F DEC
    251      14   17   0.103000  3.583011e+01  3.085787e+01  2.003540e+01  # H0G DEC
    252      14   18   0.102700  3.627575e+01  3.257894e+01  2.003904e+01  # H0H DEC
    253      15    1   0.102900  1.361038e+01  3.483440e+01  3.372149e+01  # H00 DEC
    254      15    2  -0.249200  1.353679e+01  3.549954e+01  3.285856e+01  # C01 DEC
    255      15    3   0.094200  1.259717e+01  3.667432e+01  3.318616e+01  # C02 DEC
    256      15    4   0.102900  1.453928e+01  3.585654e+01  3.261545e+01  # H03 DEC
    257      15    5   0.102900  1.314896e+01  3.492463e+01  3.201572e+01  # H04 DEC
    258      15    6  -0.373500  1.258896e+01  3.760870e+01  3.222148e+01  # O05 DEC
    259      15    7   0.089500  1.294603e+01  3.713758e+01  3.411457e+01  # H06 DEC
    260      15    8   0.089500  1.159469e+01  3.627146e+01  3.335976e+01  # H07 DEC
    261      15    9   0.671900  1.192379e+01  3.865513e+01  3.213188e+01  # C08 DEC
    262      15   10  -0.373100  1.236477e+01  3.952894e+01  3.136694e+01  # O09 DEC
    263      15   11  -0.590500  1.091152e+01  3.883334e+01  3.280355e+01  # O0A DEC
    264      15   12   0.093900  1.210987e+01  4.084842e+01  3.132880e+01  # C0B DEC
    265      15   13  -0.248900  1.283020e+01  4.155233e+01  3.016484e+01  # C0C DEC
    266      15   14   0.089400  1.245972e+01  4.129532e+01  3.226477e+01  # H0D DEC
    267      15   15   0.089400  1.103716e+01  4.104322e+01  3.123762e+01  # H0E DEC
    268      15   16   0.103000  1.269996e+01  4.263337e+01  3.025119e+01  # H0F DEC
    269      15   17   0.103000  1.389951e+01  4.133373e+01  3.017850e+01  # H0G DEC
    270      15   18   0.102700  1.241265e+01  4.123167e+01  2.920920e+01  # H0H DEC
    271      16    1   0.102900  3.348528e+01  3.746865e+01  2.341652e+01  # H00 DEC
    272      16    2  -0.249200  3.245069e+01  3.741845e+01  2.376231e+01  # C01 DEC
    273      16    3   0.094200  3.209586e+01  3.870516e+01  2.452963e+01  # C02 DEC
    274      16    4   0.102900  3.180482e+01  3.729162e+01  2.289151e+01  # H03 DEC
    275      16    5   0.102900  3.234900e+01  3.654697e+01  2.441155e+01  # H04 DEC
    276      16    6  -0.373500  3.079187e+01  3.877146e+01  2.484421e+01  # O05 DEC
    277      16    7   0.089500  3.234211e+01  3.955891e+01  2.389030e+01  # H06 DEC
    278      16    8   0.089500  3.272482e+01  3.875386e+01  2.542374e+01  # H07 DEC
    279      16    9   0.671900  3.017135e+01  3.963314e+01  2.549070e+01  # C08 DEC
    280      16   10  -0.373100  2.894231e+01  3.967936e+01  2.531608e+01  # O09 DEC
    281      16   11  -0.590500  3.075158e+01  4.042861e+01  2.622428e+01  # O0A DEC
    282      16   12   0.093900  2.807553e+01  4.067883e+01  2.555526e+01  # C0B DEC
    283      16   13  -0.248900  2.662059e+01  4.028017e+01  2.524966e+01  # C0C DEC
    284      16   14   0.089400  2.833794e+01  4.152523e+01  2.491269e+01  # H0D DEC
    285      16   15   0.089400  2.812976e+01  4.101097e+01  2.659628e+01  # H0E DEC
    286      16   16   0.103000  2.597362e+01  4.115628e+01  2.533277e+01  # H0F DEC
    287      16   17   0.103000  2.652965e+01  3.988167e+01  2.423757e+01  # H0G DEC
    288      16   18   0.102700  2.627426e+01  3.952913e+01  2.596129e+01  # H0H DEC
    289      17    1   0.102900  4.798590e+01  1.232740e+01  3.139764e+01  # H00 DEC
    290      17    2  -0.249200  4.842334e+01  1.297364e+01  3.063378e+01  # C01 DEC
    291      17    3   0.094200  4.734111e+01  1.338569e+01  2.961923e+01  # C02 DEC
    292      17    4   0.102900  4.884888e+01  1.384855e+01  3.112876e+01  # H03 DEC
    293      17    5   0.102900  4.922261e+01  1.242186e+01  3.013576e+01  # H04 DEC