created by fftool

12360 atoms
12090 bonds
20796 angles
22560 dihedrals
13 atom types
11 bond types
18 angle types
20 dihedral types
0.000000 50.000000 xlo xhi
0.000000 50.000000 ylo yhi
0.000000 50.000000 zlo zhi

Masses

   1    1.008  # H00
   2   12.011  # C01
   3    1.008  # H02
   4   15.999  # O03
   5   12.011  # C04
   6   12.011  # C05
   7    1.008  # H06
   8    1.008  # H07
   9   15.999  # O08
  10   15.999  # O09
  11    6.941  # Li
  12   30.974  # P
  13   18.998  # FP

Bond Coeffs

   1   339.997610     1.090000  # C01-H00
   2   339.997610     1.090000  # H02-C01
   3   320.004780     1.410000  # O03-C01
   4   267.997132     1.529000  # C04-C01
   5   214.005736     1.327000  # C05-O03
   6   339.997610     1.090000  # H06-C04
   7   339.997610     1.090000  # H07-C04
   8   320.004780     1.410000  # O08-C04
   9   214.005736     1.327000  # O08-C05
  10   570.004780     1.229000  # O09-C05
  11   370.458891     1.606000  # P-F

Angle Coeffs

   1    32.994742   107.800000  # H00-C01-H02
   2    35.002390   109.500000  # H00-C01-O03
   3    37.500000   110.700000  # H00-C01-C04
   4    35.002390   109.500000  # H02-C01-O03
   5    37.500000   110.700000  # H02-C01-C04
   6    50.000000   109.500000  # O03-C01-C04
   7    82.994742   116.900000  # C01-O03-C05
   8    37.500000   110.700000  # C01-C04-H06
   9    37.500000   110.700000  # C01-C04-H07
  10    50.000000   109.500000  # C01-C04-O08
  11    32.994742   107.800000  # H06-C04-H07
  12    35.002390   109.500000  # H06-C04-O08
  13    35.002390   109.500000  # H07-C04-O08
  14    69.897228   118.200000  # O03-C05-O08
  15    82.994742   123.400000  # O03-C05-O09
  16    82.994742   123.400000  # O08-C05-O09
  17    82.994742   116.900000  # C04-O08-C05
  18   139.220841    90.000000  # F-P-F

Dihedral Coeffs

   1     0.297084     0.000000     0.396033     0.000000  # C05-O03-C01-H00
   2     0.297084     0.000000     0.396033     0.000000  # C05-O03-C01-H02
   3     1.243069     0.125956     0.843929     0.000000  # C05-O03-C01-C04
   4     0.450048     0.000000     0.599904     0.000000  # H06-C04-C01-H00
   5     0.450048     0.000000     0.599904     0.000000  # H07-C04-C01-H00
   6     0.701960     0.000000     0.935946     0.000000  # O08-C04-C01-H00
   7     0.450048     0.000000     0.599904     0.000000  # H06-C04-C01-H02
   8     0.450048     0.000000     0.599904     0.000000  # H07-C04-C01-H02
   9     0.701960     0.000000     0.935946     0.000000  # O08-C04-C01-H02
  10     0.701960     0.000000     0.935946     0.000000  # H06-C04-C01-O03
  11     0.701960     0.000000     0.935946     0.000000  # H07-C04-C01-O03
  12     0.275096     0.000000     0.000000     0.000000  # O08-C04-C01-O03
  13     2.334608     5.124044     0.000000     0.000000  # O08-C05-O03-C01
  14     0.000000     5.124044     0.000000     0.000000  # O09-C05-O03-C01
  15     1.243069     0.125956     0.843929     0.000000  # C05-O08-C04-C01
  16     0.297084     0.000000     0.396033     0.000000  # H06-C04-O08-C05
  17     0.297084     0.000000     0.396033     0.000000  # H07-C04-O08-C05
  18     2.334608     5.124044     0.000000     0.000000  # C04-O08-C05-O03
  19     0.000000     5.124044     0.000000     0.000000  # O09-C05-O08-C04
  20     0.000000    10.500000     0.000000     0.000000  # O03-O08-C05-O09

Atoms

      1       1    1   0.133800  3.363643e+01  1.540324e+01  2.240913e+01  # H00 EC
      2       1    2  -0.045300  3.294034e+01  1.615147e+01  2.202149e+01  # C01 EC
      3       1    3   0.133800  3.284431e+01  1.603609e+01  2.093922e+01  # H02 EC
      4       1    4  -0.295800  3.334154e+01  1.738265e+01  2.230152e+01  # O03 EC
      5       1    5  -0.043500  3.158049e+01  1.611074e+01  2.274095e+01  # C04 EC
      6       1    6   0.584000  3.250171e+01  1.800941e+01  2.293289e+01  # C05 EC
      7       1    7   0.133700  3.156679e+01  1.539543e+01  2.356725e+01  # H06 EC
      8       1    8   0.133700  3.075650e+01  1.589762e+01  2.205541e+01  # H07 EC
      9       1    9  -0.298200  3.150504e+01  1.734864e+01  2.320753e+01  # O08 EC
     10       1   10  -0.436200  3.264225e+01  1.917834e+01  2.325630e+01  # O09 EC
     11       2    1   0.133800  3.093051e+01  3.105931e+01  4.392527e+01  # H00 EC
     12       2    2  -0.045300  3.071608e+01  3.043572e+01  4.305361e+01  # C01 EC
     13       2    3   0.133800  3.087433e+01  2.938485e+01  4.330754e+01  # H02 EC
     14       2    4  -0.295800  3.147945e+01  3.076137e+01  4.202094e+01  # O03 EC
     15       2    5  -0.043500  2.931217e+01  3.069800e+01  4.248030e+01  # C04 EC
     16       2    6   0.584000  3.081939e+01  3.106655e+01  4.103709e+01  # C05 EC
     17       2    7   0.133700  2.879832e+01  3.151556e+01  4.299235e+01  # H06 EC
     18       2    8   0.133700  2.868586e+01  2.980253e+01  4.249505e+01  # H07 EC
     19       2    9  -0.298200  2.960918e+01  3.105219e+01  4.123848e+01  # O08 EC
     20       2   10  -0.436200  3.131738e+01  3.135563e+01  3.996044e+01  # O09 EC
     21       3    1   0.133800  1.584554e+01  3.624766e+01  1.407858e+01  # H00 EC
     22       3    2  -0.045300  1.511311e+01  3.573623e+01  1.344879e+01  # C01 EC
     23       3    3   0.133800  1.531467e+01  3.595902e+01  1.239827e+01  # H02 EC
     24       3    4  -0.295800  1.387444e+01  3.609837e+01  1.374832e+01  # O03 EC
     25       3    5  -0.043500  1.505729e+01  3.422416e+01  1.372982e+01  # C04 EC
     26       3    6   0.584000  1.317509e+01  3.514216e+01  1.405387e+01  # C05 EC
     27       3    7   0.133700  1.570140e+01  3.393040e+01  1.456256e+01  # H06 EC
     28       3    8   0.133700  1.530366e+01  3.363023e+01  1.284614e+01  # H07 EC
     29       3    9  -0.298200  1.378355e+01  3.407677e+01  1.406392e+01  # O08 EC
     30       3   10  -0.436200  1.198775e+01  3.523968e+01  1.432116e+01  # O09 EC
     31       4    1   0.133800  1.089509e+01  1.341906e+01  2.035037e+01  # H00 EC
     32       4    2  -0.045300  1.080799e+01  1.355939e+01  2.143082e+01  # C01 EC
     33       4    3   0.133800  1.178621e+01  1.342201e+01  2.189778e+01  # H02 EC
     34       4    4  -0.295800  9.939922e+00  1.271272e+01  2.196448e+01  # O03 EC
     35       4    5  -0.043500  1.016701e+01  1.491074e+01  2.179340e+01  # C04 EC
     36       4    6   0.584000  9.043635e+00  1.328856e+01  2.256602e+01  # C05 EC
     37       4    7   0.133700  9.837448e+00  1.546626e+01  2.091168e+01  # H06 EC
     38       4    8   0.133700  1.083198e+01  1.553533e+01  2.239511e+01  # H07 EC
     39       4    9  -0.298200  9.119159e+00  1.451135e+01  2.249928e+01  # O08 EC
     40       4   10  -0.436200  8.161673e+00  1.270263e+01  2.317395e+01  # O09 EC
     41       5    1   0.133800  3.282990e+01  3.166595e+01  4.847966e+01  # H00 EC
     42       5    2  -0.045300  3.359792e+01  3.208701e+01  4.782583e+01  # C01 EC
     43       5    3   0.133800  3.457219e+01  3.202128e+01  4.831608e+01  # H02 EC
     44       5    4  -0.295800  3.334021e+01  3.335023e+01  4.752083e+01  # O03 EC
     45       5    5  -0.043500  3.359584e+01  3.143760e+01  4.643058e+01  # C04 EC
     46       5    6   0.584000  3.326738e+01  3.352772e+01  4.631253e+01  # C05 EC
     47       5    7   0.133700  3.277919e+01  3.072219e+01  4.630447e+01  # H06 EC
     48       5    8   0.133700  3.454815e+01  3.095441e+01  4.619825e+01  # H07 EC
     49       5    9  -0.298200  3.339771e+01  3.249703e+01  4.565978e+01  # O08 EC
     50       5   10  -0.436200  3.308419e+01  3.462388e+01  4.580695e+01  # O09 EC
     51       6    1   0.133800  2.050275e+01  1.655819e+01  7.420355e+00  # H00 EC
     52       6    2  -0.045300  1.960587e+01  1.717799e+01  7.498430e+00  # C01 EC
     53       6    3   0.133800  1.959726e+01  1.768933e+01  8.463992e+00  # H02 EC
     54       6    4  -0.295800  1.850180e+01  1.645719e+01  7.369408e+00  # O03 EC
     55       6    5  -0.043500  1.946541e+01  1.815190e+01  6.315118e+00  # C04 EC
     56       6    6   0.584000  1.779521e+01  1.685508e+01  6.453338e+00  # C05 EC
     57       6    7   0.133700  2.024204e+01  1.800590e+01  5.560017e+00  # H06 EC
     58       6    8   0.133700  1.945702e+01  1.919596e+01  6.637957e+00  # H07 EC
     59       6    9  -0.298200  1.828527e+01  1.779243e+01  5.831562e+00  # O08 EC
     60       6   10  -0.436200  1.670841e+01  1.636716e+01  6.185880e+00  # O09 EC
     61       7    1   0.133800  2.374038e+01  3.675726e+01  2.786489e+00  # H00 EC
     62       7    2  -0.045300  2.466961e+01  3.691528e+01  2.233125e+00  # C01 EC
     63       7    3   0.133800  2.452447e+01  3.770488e+01  1.491971e+00  # H02 EC
     64       7    4  -0.295800  2.507106e+01  3.580770e+01  1.627088e+00  # O03 EC
     65       7    5  -0.043500  2.586261e+01  3.719401e+01  3.164521e+00  # C04 EC
     66       7    6   0.584000  2.619953e+01  3.547888e+01  1.966516e+00  # C05 EC
     67       7    7   0.133700  2.559563e+01  3.711031e+01  4.221099e+00  # H06 EC
     68       7    8   0.133700  2.631541e+01  3.817047e+01  2.975140e+00  # H07 EC
     69       7    9  -0.298200  2.668432e+01  3.621249e+01  2.822191e+00  # O08 EC
     70       7   10  -0.436200  2.678534e+01  3.451555e+01  1.497943e+00  # O09 EC
     71       8    1   0.133800  1.914644e+01  3.500381e+00  1.967908e+00  # H00 EC
     72       8    2  -0.045300  2.009984e+01  3.238530e+00  2.433860e+00  # C01 EC
     73       8    3   0.133800  2.085227e+01  3.072025e+00  1.659273e+00  # H02 EC
     74       8    4  -0.295800  1.999311e+01  2.154282e+00  3.187645e+00  # O03 EC
     75       8    5  -0.043500  2.054628e+01  4.281288e+00  3.473955e+00  # C04 EC
     76       8    6   0.584000  2.033286e+01  2.361175e+00  4.344600e+00  # C05 EC
     77       8    7   0.133700  1.979958e+01  5.064749e+00  3.626489e+00  # H06 EC
     78       8    8   0.133700  2.150804e+01  4.733491e+00  3.219237e+00  # H07 EC
     79       8    9  -0.298200  2.064574e+01  3.527931e+00  4.559467e+00  # O08 EC
     80       8   10  -0.436200  2.035882e+01  1.490685e+00  5.200353e+00  # O09 EC
     81       9    1   0.133800  2.077703e+01  4.370925e+01  1.996840e+01  # H00 EC
     82       9    2  -0.045300  2.129093e+01  4.288297e+01  2.046621e+01  # C01 EC
     83       9    3   0.133800  2.166675e+01  4.321700e+01  2.143628e+01  # H02 EC
     84       9    4  -0.295800  2.229648e+01  4.242315e+01  1.973640e+01  # O03 EC
     85       9    5  -0.043500  2.040618e+01  4.162868e+01  2.057767e+01  # C04 EC
     86       9    6   0.584000  2.218369e+01  4.122899e+01  1.949548e+01  # C05 EC
     87       9    7   0.133700  1.944432e+01  4.175026e+01  2.007300e+01  # H06 EC
     88       9    8   0.133700  2.024230e+01  4.132950e+01  2.161593e+01  # H07 EC
     89       9    9  -0.298200  2.114897e+01  4.073849e+01  1.993610e+01  # O08 EC
     90       9   10  -0.436200  2.302022e+01  4.058889e+01  1.887804e+01  # O09 EC
     91      10    1   0.133800  5.111614e+00  2.604262e+01  3.631579e+01  # H00 EC
     92      10    2  -0.045300  5.431243e+00  2.592069e+01  3.527770e+01  # C01 EC
     93      10    3   0.133800  5.756378e+00  2.688471e+01  3.487922e+01  # H02 EC
     94      10    4  -0.295800  4.458194e+00  2.543455e+01  3.452139e+01  # O03 EC
     95      10    5  -0.043500  6.503308e+00  2.482753e+01  3.512235e+01  # C04 EC
     96      10    6   0.584000  4.782343e+00  2.439473e+01  3.396418e+01  # C05 EC
     97      10    7   0.133700  6.706918e+00  2.430627e+01  3.606122e+01  # H06 EC
     98      10    8   0.133700  7.435925e+00  2.521918e+01  3.470860e+01  # H07 EC
     99      10    9  -0.298200  5.907596e+00  2.401015e+01  3.426632e+01  # O08 EC
    100      10   10  -0.436200  4.056705e+00  2.379963e+01  3.318313e+01  # O09 EC
    101      11    1   0.133800  1.337735e+01  1.060980e+01  1.841082e+01  # H00 EC
    102      11    2  -0.045300  1.309116e+01  1.082965e+01  1.737912e+01  # C01 EC
    103      11    3   0.133800  1.284424e+01  9.899534e+00  1.686166e+01  # H02 EC
    104      11    4  -0.295800  1.405970e+01  1.145542e+01  1.672680e+01  # O03 EC
    105      11    5  -0.043500  1.195807e+01  1.186782e+01  1.729703e+01  # C04 EC
    106      11    6   0.584000  1.369146e+01  1.253071e+01  1.627413e+01  # C05 EC
    107      11    7   0.133700  1.168511e+01  1.226609e+01  1.827760e+01  # H06 EC
    108      11    8   0.133700  1.106927e+01  1.147106e+01  1.680007e+01  # H07 EC
    109      11    9  -0.298200  1.253298e+01  1.281103e+01  1.656517e+01  # O08 EC
    110      11   10  -0.436200  1.440727e+01  1.325266e+01  1.559800e+01  # O09 EC
    111      12    1   0.133800  3.215510e+01  1.561824e+01  2.943040e+01  # H00 EC
    112      12    2  -0.045300  3.199766e+01  1.583430e+01  3.049020e+01  # C01 EC
    113      12    3   0.133800  3.133728e+01  1.669865e+01  3.059335e+01  # H02 EC
    114      12    4  -0.295800  3.314132e+01  1.607403e+01  3.111451e+01  # O03 EC
    115      12    5  -0.043500  3.148681e+01  1.460712e+01  3.126576e+01  # C04 EC
    116      12    6   0.584000  3.331944e+01  1.531654e+01  3.205858e+01  # C05 EC
    117      12    7   0.133700  3.144192e+01  1.370942e+01  3.064386e+01  # H06 EC
    118      12    8   0.133700  3.051179e+01  1.478563e+01  3.172601e+01  # H07 EC
    119      12    9  -0.298200  3.243220e+01  1.447861e+01  3.218527e+01  # O08 EC
    120      12   10  -0.436200  3.428531e+01  1.538918e+01  3.280192e+01  # O09 EC
    121      13    1   0.133800  3.785532e+01  4.227984e+01  9.352564e+00  # H00 EC
    122      13    2  -0.045300  3.773081e+01  4.124448e+01  9.025208e+00  # C01 EC
    123      13    3   0.133800  3.670553e+01  4.109045e+01  8.680338e+00  # H02 EC
    124      13    4  -0.295800  3.800355e+01  4.038862e+01  9.999013e+00  # O03 EC
    125      13    5  -0.043500  3.877443e+01  4.083713e+01  7.970047e+00  # C04 EC
    126      13    6   0.584000  3.888533e+01  3.960005e+01  9.686945e+00  # C05 EC
    127      13    7   0.133700  3.950915e+01  4.162467e+01  7.784015e+00  # H06 EC
    128      13    8   0.133700  3.831228e+01  4.053419e+01  7.027177e+00  # H07 EC
    129      13    9  -0.298200  3.935175e+01  3.980701e+01  8.571148e+00  # O08 EC
    130      13   10  -0.436200  3.926246e+01  3.869534e+01  1.041496e+01  # O09 EC
    131      14    1   0.133800  1.844928e+01  4.843186e+00  1.922526e+01  # H00 EC
    132      14    2  -0.045300  1.840899e+01  3.868968e+00  1.873138e+01  # C01 EC
    133      14    3   0.133800  1.863144e+01  3.988086e+00  1.766828e+01  # H02 EC
    134      14    4  -0.295800  1.722191e+01  3.298267e+00  1.887398e+01  # O03 EC
    135      14    5  -0.043500  1.932108e+01  2.832491e+00  1.941127e+01  # C04 EC
    136      14    6   0.584000  1.729949e+01  2.197270e+00  1.940177e+01  # C05 EC
    137      14    7   0.133700  1.979388e+01  3.222528e+00  2.031624e+01  # H06 EC
    138      14    8   0.133700  2.008613e+01  2.447022e+00  1.873269e+01  # H07 EC
    139      14    9  -0.298200  1.844290e+01  1.890984e+00  1.972455e+01  # O08 EC
    140      14   10  -0.436200  1.633313e+01  1.474473e+00  1.958737e+01  # O09 EC
    141      15    1   0.133800  2.348692e+01  4.850363e+01  4.522680e+01  # H00 EC
    142      15    2  -0.045300  2.362021e+01  4.776192e+01  4.443513e+01  # C01 EC
    143      15    3   0.133800  2.398194e+01  4.682598e+01  4.486759e+01  # H02 EC
    144      15    4  -0.295800  2.447264e+01  4.818149e+01  4.351182e+01  # O03 EC
    145      15    5  -0.043500  2.234439e+01  4.756871e+01  4.359644e+01  # C04 EC
    146      15    6   0.584000  2.397397e+01  4.819376e+01  4.239470e+01  # C05 EC
    147      15    7   0.133700  2.154750e+01  4.825939e+01  4.388377e+01  # H06 EC
    148      15    8   0.133700  2.197422e+01  4.654128e+01  4.363795e+01  # H07 EC
    149      15    9  -0.298200  2.279160e+01  4.786623e+01  4.238513e+01  # O08 EC
    150      15   10  -0.436200  2.459367e+01  4.850083e+01  4.138851e+01  # O09 EC
    151      16    1   0.133800  4.002622e+01  3.010028e+01  1.366252e+01  # H00 EC
    152      16    2  -0.045300  4.099177e+01  3.058406e+01  1.349419e+01  # C01 EC
    153      16    3   0.133800  4.099109e+01  3.157355e+01  1.395760e+01  # H02 EC
    154      16    4  -0.295800  4.126056e+01  3.070057e+01  1.220215e+01  # O03 EC
    155      16    5  -0.043500  4.217006e+01  2.971372e+01  1.396597e+01  # C04 EC
    156      16    6   0.584000  4.231599e+01  3.016076e+01  1.189975e+01  # C05 EC
    157      16    7   0.133700  4.184796e+01  2.873003e+01  1.431705e+01  # H06 EC
    158      16    8   0.133700  4.276281e+01  3.020570e+01  1.474118e+01  # H07 EC
    159      16    9  -0.298200  4.286064e+01  2.959346e+01  1.284151e+01  # O08 EC
    160      16   10  -0.436200  4.278131e+01  3.018594e+01  1.077122e+01  # O09 EC
    161      17    1   0.133800  3.765356e+00  1.499968e+00  1.200679e+01  # H00 EC
    162      17    2  -0.045300  3.700638e+00  2.492773e+00  1.155425e+01  # C01 EC
    163      17    3   0.133800  3.984986e+00  3.249378e+00  1.228946e+01  # H02 EC
    164      17    4  -0.295800  2.479587e+00  2.746712e+00  1.110734e+01  # O03 EC
    165      17    5  -0.043500  4.520254e+00  2.596167e+00  1.025579e+01  # C04 EC
    166      17    6   0.584000  2.471693e+00  3.017000e+00  9.914169e+00  # C05 EC
    167      17    7   0.133700  4.964112e+00  1.640547e+00  9.965240e+00  # H06 EC
    168      17    8   0.133700  5.299076e+00  3.360274e+00  1.031846e+01  # H07 EC
    169      17    9  -0.298200  3.578906e+00  2.944088e+00  9.390579e+00  # O08 EC
    170      17   10  -0.436200  1.460550e+00  3.329779e+00  9.305483e+00  # O09 EC
    171      18    1   0.133800  6.402891e+00  3.068954e+01  8.247459e+00  # H00 EC
    172      18    2  -0.045300  6.277679e+00  2.978995e+01  7.639423e+00  # C01 EC
    173      18    3   0.133800  5.254903e+00  2.941913e+01  7.740754e+00  # H02 EC
    174      18    4  -0.295800  7.130191e+00  2.883946e+01  7.992905e+00  # O03 EC
    175      18    5  -0.043500  6.678491e+00  3.001820e+01  6.171193e+00  # C04 EC
    176      18    6   0.584000  7.829461e+00  2.847536e+01  7.057368e+00  # C05 EC
    177      18    7   0.133700  7.092527e+00  3.101546e+01  6.001819e+00  # H06 EC
    178      18    8   0.133700  5.847166e+00  2.984278e+01  5.483822e+00  # H07 EC
    179      18    9  -0.298200  7.622702e+00  2.910059e+01  6.022126e+00  # O08 EC
    180      18   10  -0.436200  8.651325e+00  2.757681e+01  7.146165e+00  # O09 EC
    181      19    1   0.133800  2.559460e+01  2.349514e+01  4.261690e+01  # H00 EC
    182      19    2  -0.045300  2.538578e+01  2.453530e+01  4.287979e+01  # C01 EC
    183      19    3   0.133800  2.507363e+01  2.508281e+01  4.198725e+01  # H02 EC
    184      19    4  -0.295800  2.644484e+01  2.512581e+01  4.341352e+01  # O03 EC
    185      19    5  -0.043500  2.436868e+01  2.465334e+01  4.402872e+01  # C04 EC
    186      19    6   0.584000  2.621060e+01  2.557491e+01  4.452717e+01  # C05 EC
    187      19    7   0.133700  2.408679e+01  2.367994e+01  4.443819e+01  # H06 EC
    188      19    8   0.133700  2.347139e+01  2.520191e+01  4.373156e+01  # H07 EC
    189      19    9  -0.298200  2.507270e+01  2.533666e+01  4.491934e+01  # O08 EC
    190      19   10  -0.436200  2.702946e+01  2.619992e+01  4.518258e+01  # O09 EC
    191      20    1   0.133800  2.499125e+01  9.565585e+00  3.449044e+00  # H00 EC
    192      20    2  -0.045300  2.575264e+01  9.748589e+00  2.686517e+00  # C01 EC
    193      20    3   0.133800  2.543982e+01  9.298203e+00  1.741454e+00  # H02 EC
    194      20    4  -0.295800  2.692935e+01  9.255686e+00  3.043682e+00  # O03 EC
    195      20    5  -0.043500  2.608727e+01  1.124395e+01  2.543867e+00  # C04 EC
    196      20    6   0.584000  2.780270e+01  1.011227e+01  3.060596e+00  # C05 EC
    197      20    7   0.133700  2.556553e+01  1.186046e+01  3.280305e+00  # H06 EC
    198      20    8   0.133700  2.588265e+01  1.161909e+01  1.538008e+00  # H07 EC
    199      20    9  -0.298200  2.738834e+01  1.123611e+01  2.794733e+00  # O08 EC
    200      20   10  -0.436200  2.897201e+01  9.870910e+00  3.315931e+00  # O09 EC
    201      21    1   0.133800  8.032792e+00  3.549273e+01  5.234599e+00  # H00 EC
    202      21    2  -0.045300  7.303245e+00  3.515003e+01  5.972819e+00  # C01 EC
    203      21    3   0.133800  7.710817e+00  3.528066e+01  6.978138e+00  # H02 EC
    204      21    4  -0.295800  6.981811e+00  3.387824e+01  5.787297e+00  # O03 EC
    205      21    5  -0.043500  5.934237e+00  3.583134e+01  5.799355e+00  # C04 EC
    206      21    6   0.584000  5.779103e+00  3.372530e+01  5.623357e+00  # C05 EC
    207      21    7   0.133700  5.900385e+00  3.648269e+01  4.922299e+00  # H06 EC
    208      21    8   0.133700  5.637131e+00  3.639402e+01  6.687875e+00  # H07 EC
    209      21    9  -0.298200  5.150245e+00  3.477881e+01  5.616798e+00  # O08 EC
    210      21   10  -0.436200  5.256819e+00  3.263084e+01  5.481564e+00  # O09 EC
    211      22    1   0.133800  4.028507e+01  3.416051e+01  2.153196e+01  # H00 EC
    212      22    2  -0.045300  3.997873e+01  3.385475e+01  2.253561e+01  # C01 EC
    213      22    3   0.133800  3.899482e+01  3.338182e+01  2.248980e+01  # H02 EC
    214      22    4  -0.295800  3.993651e+01  3.488463e+01  2.336792e+01  # O03 EC
    215      22    5  -0.043500  4.102970e+01  3.296239e+01  2.321943e+01  # C04 EC
    216      22    6   0.584000  4.065640e+01  3.471967e+01  2.434327e+01  # C05 EC
    217      22    7   0.133700  4.193571e+01  3.284930e+01  2.261861e+01  # H06 EC
    218      22    8   0.133700  4.063186e+01  3.197717e+01  2.347523e+01  # H07 EC
    219      22    9  -0.298200  4.129006e+01  3.366957e+01  2.430933e+01  # O08 EC
    220      22   10  -0.436200  4.073475e+01  3.552165e+01  2.526057e+01  # O09 EC
    221      23    1   0.133800  2.057813e+01  2.870216e+01  3.089839e+01  # H00 EC
    222      23    2  -0.045300  2.149058e+01  2.814919e+01  3.113570e+01  # C01 EC
    223      23    3   0.133800  2.152325e+01  2.722793e+01  3.054913e+01  # H02 EC
    224      23    4  -0.295800  2.156163e+01  2.785542e+01  3.242559e+01  # O03 EC
    225      23    5  -0.043500  2.275559e+01  2.900699e+01  3.095574e+01  # C04 EC
    226      23    6   0.584000  2.257935e+01  2.829438e+01  3.294359e+01  # C05 EC
    227      23    7   0.133700  2.252378e+01  3.004328e+01  3.069689e+01  # H06 EC
    228      23    8   0.133700  2.343840e+01  2.858575e+01  3.021366e+01  # H07 EC
    229      23    9  -0.298200  2.327663e+01  2.894603e+01  3.217253e+01  # O08 EC
    230      23   10  -0.436200  2.287199e+01  2.810111e+01  3.411310e+01  # O09 EC
    231      24    1   0.133800  4.141803e+01  4.275916e+01  1.173798e+01  # H00 EC
    232      24    2  -0.045300  4.089064e+01  4.180573e+01  1.182447e+01  # C01 EC
    233      24    3   0.133800  3.995935e+01  4.184962e+01  1.125472e+01  # H02 EC
    234      24    4  -0.295800  4.062321e+01  4.150881e+01  1.308760e+01  # O03 EC
    235      24    5  -0.043500  4.177347e+01  4.061224e+01  1.141871e+01  # C04 EC
    236      24    6   0.584000  4.109506e+01  4.042944e+01  1.341790e+01  # C05 EC
    237      24    7   0.133700  4.279908e+01  4.091128e+01  1.118776e+01  # H06 EC
    238      24    8   0.133700  4.135384e+01  4.005499e+01  1.057744e+01  # H07 EC
    239      24    9  -0.298200  4.174762e+01  3.989045e+01  1.252962e+01  # O08 EC
    240      24   10  -0.436200  4.093085e+01  3.993729e+01  1.452314e+01  # O09 EC
    241      25    1   0.133800  1.391152e+01  1.996007e+01  3.369943e+01  # H00 EC
    242      25    2  -0.045300  1.299559e+01  1.993251e+01  3.310363e+01  # C01 EC
    243      25    3   0.133800  1.263967e+01  1.890232e+01  3.302700e+01  # H02 EC
    244      25    4  -0.295800  1.318837e+01  2.042572e+01  3.188923e+01  # O03 EC
    245      25    5  -0.043500  1.191851e+01  2.088882e+01  3.364568e+01  # C04 EC
    246      25    6   0.584000  1.243591e+01  2.135903e+01  3.164528e+01  # C05 EC
    247      25    7   0.133700  1.227773e+01  2.148892e+01  3.448561e+01  # H06 EC
    248      25    8   0.133700  1.100510e+01  2.036214e+01  3.393315e+01  # H07 EC
    249      25    9  -0.298200  1.171174e+01  2.166066e+01  3.258866e+01  # O08 EC
    250      25   10  -0.436200  1.240839e+01  2.193247e+01  3.056771e+01  # O09 EC
    251      26    1   0.133800  4.318512e+01  1.952795e+01  3.482442e+01  # H00 EC
    252      26    2  -0.045300  4.331458e+01  2.043950e+01  3.423538e+01  # C01 EC
    253      26    3   0.133800  4.384453e+01  2.020460e+01  3.330920e+01  # H02 EC
    254      26    4  -0.295800  4.398556e+01  2.136345e+01  3.490716e+01  # O03 EC
    255      26    5  -0.043500  4.198094e+01  2.116484e+01  3.398295e+01  # C04 EC
    256      26    6   0.584000  4.335582e+01  2.240721e+01  3.501088e+01  # C05 EC
    257      26    7   0.133700  4.114303e+01  2.068933e+01  3.449914e+01  # H06 EC
    258      26    8   0.133700  4.175442e+01  2.125439e+01  3.291758e+01  # H07 EC
    259      26    9  -0.298200  4.223349e+01  2.235029e+01  3.451840e+01  # O08 EC
    260      26   10  -0.436200  4.380211e+01  2.340729e+01  3.555070e+01  # O09 EC
    261      27    1   0.133800  5.938172e+00  1.557497e+01  3.399422e+01  # H00 EC
    262      27    2  -0.045300  6.463170e+00  1.462371e+01  3.411310e+01  # C01 EC
    263      27    3   0.133800  6.918587e+00  1.433573e+01  3.316257e+01  # H02 EC
    264      27    4  -0.295800  5.646888e+00  1.366356e+01  3.452171e+01  # O03 EC
    265      27    5  -0.043500  7.481148e+00  1.465983e+01  3.526673e+01  # C04 EC
    266      27    6   0.584000  6.023232e+00  1.315165e+01  3.556722e+01  # C05 EC
    267      27    7   0.133700  7.451834e+00  1.560210e+01  3.581982e+01  # H06 EC
    268      27    8   0.133700  8.500607e+00  1.446502e+01  3.492452e+01  # H07 EC
    269      27    9  -0.298200  7.035691e+00  1.367022e+01  3.602700e+01  # O08 EC
    270      27   10  -0.436200  5.447516e+00  1.221560e+01  3.609929e+01  # O09 EC
    271      28    1   0.133800  4.308499e+01  3.265452e+01  1.052017e+01  # H00 EC
    272      28    2  -0.045300  4.380212e+01  3.291616e+01  1.130242e+01  # C01 EC
    273      28    3   0.133800  4.481394e+01  3.267762e+01  1.096601e+01  # H02 EC
    274      28    4  -0.295800  4.354812e+01  3.227277e+01  1.243234e+01  # O03 EC
    275      28    5  -0.043500  4.366213e+01  3.438020e+01  1.175567e+01  # C04 EC
    276      28    6   0.584000  4.337343e+01  3.303857e+01  1.337032e+01  # C05 EC
    277      28    7   0.133700  4.282108e+01  3.488706e+01  1.127571e+01  # H06 EC
    278      28    8   0.133700  4.457877e+01  3.495262e+01  1.159297e+01  # H07 EC
    279      28    9  -0.298200  4.342173e+01  3.422172e+01  1.304907e+01  # O08 EC
    280      28   10  -0.436200  4.317210e+01  3.266114e+01  1.451389e+01  # O09 EC
    281      29    1   0.133800  2.835184e+01  4.459880e+01  3.601139e+01  # H00 EC
    282      29    2  -0.045300  2.933635e+01  4.454090e+01  3.554018e+01  # C01 EC
    283      29    3   0.133800  2.940246e+01  4.362938e+01  3.494134e+01  # H02 EC
    284      29    4  -0.295800  3.030915e+01  4.455126e+01  3.643946e+01  # O03 EC
    285      29    5  -0.043500  2.966893e+01  4.580475e+01  3.472746e+01  # C04 EC
    286      29    6   0.584000  3.109711e+01  4.546909e+01  3.625652e+01  # C05 EC
    287      29    7   0.133700  2.890023e+01  4.657599e+01  3.482199e+01  # H06 EC
    288      29    8   0.133700  2.984088e+01  4.558344e+01  3.367114e+01  # H07 EC
    289      29    9  -0.298200  3.078639e+01  4.619894e+01  3.532048e+01  # O08 EC
    290      29   10  -0.436200  3.209528e+01  4.564020e+01  3.693852e+01  # O09 EC
    291      30    1   0.133800  3.543809e+01  3.958149e+01  2.840330e+00  # H00 EC
    292      30    2  -0.045300  3.600795e+01  4.039599e+01  2.385913e+00  # C01 EC
    293      30    3   0.133800  3.550025e+01  4.073725e+01  1.480573e+00  # H02 EC
    294      30    4  -0.295800  3.724240e+01  4.001993e+01  2.086121e+00  # O03 EC
    295      30    5  -0.043500  3.627836e+01  4.154201e+01  3.376866e+00  # C04 EC
    296      30    6   0.584000  3.808374e+01  4.072539e+01  2.625780e+00  # C05 EC
    297      30    7   0.133700  3.592343e+01  4.131425e+01  4.385228e+00  # H06 EC
    298      30    8   0.133700  3.584931e+01  4.248914e+01  3.040392e+00  # H07 EC
    299      30    9  -0.298200  3.760260e+01  4.158448e+01  3.357796e+00  # O08 EC
    300      30   10  -0.436200  3.928429e+01  4.058781e+01  2.451170e+00  # O09 EC
    301      31    1   0.133800  3.063667e+01  2.440516e+00  2.508931e+01  # H00 EC
    302      31    2  -0.045300  2.956301e+01  2.645184e+00  2.509190e+01  # C01 EC
    303      31    3   0.133800  2.920480e+01  2.707636e+00  2.612225e+01  # H02 EC
    304      31    4  -0.295800  2.888612e+01  1.708612e+00  2.444395e+01  # O03 EC
    305      31    5  -0.043500  2.920571e+01  3.894673e+00  2.426754e+01  # C04 EC
    306      31    6   0.584000  2.821876e+01  2.171126e+00  2.352881e+01  # C05 EC
    307      31    7   0.133700  3.007349e+01  4.319931e+00  2.375690e+01  # H06 EC
    308      31    8   0.133700  2.872070e+01  4.664429e+00  2.487301e+01  # H07 EC
    309      31    9  -0.298200  2.836251e+01  3.380965e+00  2.338386e+01  # O08 EC
    310      31   10  -0.436200  2.748131e+01  1.494198e+00  2.282976e+01  # O09 EC
    311      32    1   0.133800  1.816381e+01  7.796475e+00  2.536856e+01  # H00 EC
    312      32    2  -0.045300  1.768958e+01  8.511169e+00  2.469109e+01  # C01 EC
    313      32    3   0.133800  1.661716e+01  8.308857e+00  2.463788e+01  # H02 EC
    314      32    4  -0.295800  1.821213e+01  8.451599e+00  2.347513e+01  # O03 EC
    315      32    5  -0.043500  1.799527e+01  9.969742e+00  2.507523e+01  # C04 EC
    316      32    6   0.584000  1.865589e+01  9.531664e+00  2.311002e+01  # C05 EC
    317      32    7   0.133700  1.869566e+01  1.004314e+01  2.591113e+01  # H06 EC