LAMMPS data file Created by LigParGen - (Written by Leela S. Dodda)

      18 atoms
      17 bonds
      29 angles
      28 dihedrals
       9 impropers
 
      18 atom types
      17 bond types
      29 angle types
      28 dihedral types
       9 improper types
 
   -6.554100    43.445900 xlo xhi
    0.066260    50.066260 ylo yhi
   -0.538290    49.461710 zlo zhi

Masses

       1      1.008  
       2     12.011  
       3     12.011  
       4      1.008  
       5      1.008  
       6     15.999  
       7      1.008  
       8      1.008  
       9     12.011  
      10     15.999  
      11     15.999  
      12     12.011  
      13     12.011  
      14      1.008  
      15      1.008  
      16      1.008  
      17      1.008  
      18      1.008  

Pair Coeffs 

       1      0.030  2.5000000 
       2      0.066  3.5000000 
       3      0.066  3.5000000 
       4      0.030  2.5000000 
       5      0.030  2.5000000 
       6      0.140  2.9000000 
       7      0.030  2.5000000 
       8      0.030  2.5000000 
       9      0.070  3.5500000 
      10      0.140  2.9000000 
      11      0.210  2.9600000 
      12      0.066  3.5000000 
      13      0.066  3.5000000 
      14      0.030  2.5000000 
      15      0.030  2.5000000 
      16      0.030  2.5000000 
      17      0.030  2.5000000 
      18      0.030  2.5000000 

Bond Coeffs 

       1   340.0000     1.0900 
       2   268.0000     1.5290 
       3   340.0000     1.0900 
       4   340.0000     1.0900 
       5   320.0000     1.4100 
       6   340.0000     1.0900 
       7   340.0000     1.0900 
       8   214.0000     1.3270 
       9   214.0000     1.3270 
      10   570.0000     1.2290 
      11   320.0000     1.4100 
      12   268.0000     1.5290 
      13   340.0000     1.0900 
      14   340.0000     1.0900 
      15   340.0000     1.0900 
      16   340.0000     1.0900 
      17   340.0000     1.0900 

Angle Coeffs 

       1     37.500    110.700
       2     33.000    107.800
       3     33.000    107.800
       4     50.000    109.500
       5     37.500    110.700
       6     37.500    110.700
       7     83.000    116.900
       8     69.900    118.180
       9     83.000    123.400
      10     83.000    116.900
      11     50.000    109.500
      12     35.000    109.500
      13     35.000    109.500
      14     37.500    110.700
      15     37.500    110.700
      16     37.500    110.700
      17     35.000    109.500
      18     33.000    107.800
      19     33.000    107.800
      20     33.000    107.800
      21     37.500    110.700
      22     37.500    110.700
      23     37.500    110.700
      24     33.000    107.800
      25     37.500    110.700
      26     83.000    123.400
      27     33.000    107.800
      28     35.000    109.500
      29     33.000    107.800

Dihedral Coeffs  

       1      0.000      0.000      0.468      0.000 
       2     -1.220     -0.126      0.422      0.000 
       3      4.669      5.124      0.000      0.000 
       4      4.669      5.124      0.000      0.000 
       5     -1.220     -0.126      0.422      0.000 
       6      0.000      0.000      0.468      0.000 
       7      0.000      0.000      0.300      0.000 
       8      0.000      0.000      0.300      0.000 
       9      0.000      0.000      0.468      0.000 
      10      0.000      0.000      0.468      0.000 
      11      0.000      5.124      0.000      0.000 
      12      0.000      0.000      0.468      0.000 
      13      0.000      0.000      0.300      0.000 
      14      0.000      0.000      0.300      0.000 
      15      0.000      0.000      0.300      0.000 
      16      0.000      0.000      0.300      0.000 
      17      0.000      0.000      0.198      0.000 
      18      0.000      0.000      0.300      0.000 
      19      0.000      0.000      0.300      0.000 
      20      0.000      0.000      0.300      0.000 
      21      0.000      0.000      0.198      0.000 
      22      0.000      0.000      0.198      0.000 
      23      0.000      5.124      0.000      0.000 
      24      0.000      0.000      0.300      0.000 
      25      0.000      0.000      0.198      0.000 
      26      0.000      0.000      0.468      0.000 
      27      0.000      0.000      0.300      0.000 
      28      0.000      0.000      0.300      0.000 

Improper Coeffs 

       1      0.000      -1       2 
       2      0.000      -1       2 
       3      0.000      -1       2 
       4      0.000      -1       2 
       5     10.500      -1       2 
       6      0.000      -1       2 
       7      0.000      -1       2 
       8      0.000      -1       2 
       9      0.000      -1       2 

Atoms 

     1      1      1 0.10290000    1.000  1.00000  0.00000
     2      1      2 -0.24920000   -0.092  1.00000  0.00000
     3      1      3 0.09420000   -0.612  1.00000  1.44911
     4      1      4 0.10290000   -0.434  1.88590 -0.53829
     5      1      5 0.10290000   -0.434  0.10797 -0.52786
     6      1      6 -0.37350000   -1.944  1.15833  1.51587
     7      1      7 0.08950000   -0.137  1.83191  1.97880
     8      1      8 0.08950000   -0.297  0.06626  1.92482
     9      1      9 0.67190000   -2.697  1.16224  2.50504
    10      1     10 -0.37310000   -3.804  1.70620  2.35733
    11      1     11 -0.59050000   -2.343  0.69697  3.58476
    12      1     12 0.09390000   -4.655  2.19102  3.27830
    13      1     13 -0.24890000   -5.955  2.72697  2.65226
    14      1     14 0.08940000   -4.164  3.01764  3.80154
    15      1     15 0.08940000   -4.918  1.42785  4.01680
    16      1     16 0.10300000   -6.554  3.22537  3.41767
    17      1     17 0.10300000   -5.739  3.44855  1.86229
    18      1     18 0.10300000   -6.543  1.90757  2.23601

Bonds 

     1      1      2      1
     2      2      3      2
     3      3      4      2
     4      4      5      2
     5      5      6      3
     6      6      7      3
     7      7      8      3
     8      8      9      6
     9      9     10      9
    10     10     11      9
    11     11     12     10
    12     12     13     12
    13     13     14     12
    14     14     15     12
    15     15     16     13
    16     16     17     13
    17     17     18     13

Angles 

     1      1      1      2      3
     2      2      1      2      4
     3      3      1      2      5
     4      4      2      3      6
     5      5      2      3      7
     6      6      2      3      8
     7      7      3      6      9
     8      8      6      9     10
     9      9      6      9     11
    10     10      9     10     12
    11     11     10     12     13
    12     12     10     12     14
    13     13     10     12     15
    14     14     12     13     16
    15     15     12     13     17
    16     16     12     13     18
    17     17      6      3      8
    18     18      7      3      8
    19     19     16     13     18
    20     20     14     12     15
    21     21      3      2      4
    22     22     13     12     14
    23     23      3      2      5
    24     24      4      2      5
    25     25     13     12     15
    26     26     10      9     11
    27     27     16     13     17
    28     28      6      3      7
    29     29     17     13     18

Dihedrals

     1      1      6      3      2      1 
     2      2      9      6      3      2 
     3      3     10      9      6      3 
     4      4     12     10      9      6 
     5      5     13     12     10      9 
     6      6     16     13     12     10 
     7      7      7      3      2      5 
     8      8      8      3      2      4 
     9      9     18     13     12     10 
    10     10     17     13     12     10 
    11     11     11      9      6      3 
    12     12      6      3      2      4 
    13     13      7      3      2      1 
    14     14     18     13     12     15 
    15     15     16     13     12     14 
    16     16     17     13     12     15 
    17     17     15     12     10      9 
    18     18      8      3      2      5 
    19     19     16     13     12     15 
    20     20     17     13     12     14 
    21     21      9      6      3      8 
    22     22      9      6      3      7 
    23     23     12     10      9     11 
    24     24      8      3      2      1 
    25     25     14     12     10      9 
    26     26      6      3      2      5 
    27     27      7      3      2      4 
    28     28     18     13     12     14 

Impropers

     1      1      2      1      3      4 
     2      2      2      1      3      5 
     3      3      3      2      6      7 
     4      4      3      2      6      8 
     5      5      9     10     11      6 
     6      6     12     10     13     14 
     7      7     12     10     13     15 
     8      8     13     17     12     16 
     9      9     13     18     12     16 
