LAMMPS data file Created by LigParGen - (Written by Leela S. Dodda)

      21 atoms
      20 bonds
      37 angles
      42 dihedrals
      12 impropers
 
      21 atom types
      20 bond types
      37 angle types
      42 dihedral types
      12 improper types
 
   -2.944640    47.055360 xlo xhi
    0.110040    50.110040 ylo yhi
   -3.213700    46.786300 zlo zhi

Masses

       1     15.999  
       2     12.011  
       3     12.011  
       4     12.011  
       5     12.011  
       6     12.011  
       7     12.011  
       8      1.008  
       9      1.008  
      10      1.008  
      11      1.008  
      12      1.008  
      13      1.008  
      14      1.008  
      15      1.008  
      16      1.008  
      17      1.008  
      18      1.008  
      19      1.008  
      20      1.008  
      21      1.008  

Pair Coeffs 

       1      0.140  2.9000000 
       2      0.066  3.5000000 
       3      0.066  3.5000000 
       4      0.066  3.5000000 
       5      0.066  3.5000000 
       6      0.066  3.5000000 
       7      0.066  3.5000000 
       8      0.030  2.5000000 
       9      0.030  2.5000000 
      10      0.030  2.5000000 
      11      0.030  2.5000000 
      12      0.030  2.5000000 
      13      0.030  2.5000000 
      14      0.030  2.5000000 
      15      0.030  2.5000000 
      16      0.030  2.5000000 
      17      0.030  2.5000000 
      18      0.030  2.5000000 
      19      0.030  2.5000000 
      20      0.030  2.5000000 
      21      0.030  2.5000000 

Bond Coeffs 

       1   320.0000     1.4100 
       2   320.0000     1.4100 
       3   268.0000     1.5290 
       4   268.0000     1.5290 
       5   268.0000     1.5290 
       6   268.0000     1.5290 
       7   340.0000     1.0900 
       8   340.0000     1.0900 
       9   340.0000     1.0900 
      10   340.0000     1.0900 
      11   340.0000     1.0900 
      12   340.0000     1.0900 
      13   340.0000     1.0900 
      14   340.0000     1.0900 
      15   340.0000     1.0900 
      16   340.0000     1.0900 
      17   340.0000     1.0900 
      18   340.0000     1.0900 
      19   340.0000     1.0900 
      20   340.0000     1.0900 

Angle Coeffs 

       1     60.000    109.500
       2     50.000    109.500
       3     50.000    109.500
       4     58.350    112.700
       5     58.350    112.700
       6     35.000    109.500
       7     35.000    109.500
       8     35.000    109.500
       9     35.000    109.500
      10     37.500    110.700
      11     37.500    110.700
      12     37.500    110.700
      13     37.500    110.700
      14     37.500    110.700
      15     37.500    110.700
      16     37.500    110.700
      17     37.500    110.700
      18     37.500    110.700
      19     37.500    110.700
      20     37.500    110.700
      21     37.500    110.700
      22     37.500    110.700
      23     33.000    107.800
      24     37.500    110.700
      25     33.000    107.800
      26     33.000    107.800
      27     37.500    110.700
      28     33.000    107.800
      29     33.000    107.800
      30     37.500    110.700
      31     33.000    107.800
      32     33.000    107.800
      33     33.000    107.800
      34     33.000    107.800
      35     37.500    110.700
      36     33.000    107.800
      37     37.500    110.700

Dihedral Coeffs  

       1      0.650     -0.250      0.670      0.000 
       2      0.650     -0.250      0.670      0.000 
       3      1.711     -0.500      0.663      0.000 
       4      1.711     -0.500      0.663      0.000 
       5      0.000      0.000      0.300      0.000 
       6      0.000      0.000      0.300      0.000 
       7      0.000      0.000      0.300      0.000 
       8      0.000      0.000      0.300      0.000 
       9      0.000      0.000      0.300      0.000 
      10      0.000      0.000      0.300      0.000 
      11      0.000      0.000      0.300      0.000 
      12      0.000      0.000      0.300      0.000 
      13      0.000      0.000      0.300      0.000 
      14      0.000      0.000      0.300      0.000 
      15      0.000      0.000      0.300      0.000 
      16      0.000      0.000      0.300      0.000 
      17      0.000      0.000      0.300      0.000 
      18      0.000      0.000      0.760      0.000 
      19      0.000      0.000      0.300      0.000 
      20      0.000      0.000      0.300      0.000 
      21      0.000      0.000      0.300      0.000 
      22      0.000      0.000      0.468      0.000 
      23      0.000      0.000      0.300      0.000 
      24      0.000      0.000      0.760      0.000 
      25      0.000      0.000      0.300      0.000 
      26      0.000      0.000      0.300      0.000 
      27      0.000      0.000      0.300      0.000 
      28      0.000      0.000      0.300      0.000 
      29      0.000      0.000      0.300      0.000 
      30      0.000      0.000      0.300      0.000 
      31      0.000      0.000      0.300      0.000 
      32      0.000      0.000      0.300      0.000 
      33      0.000      0.000      0.300      0.000 
      34      0.000      0.000      0.760      0.000 
      35      0.000      0.000      0.760      0.000 
      36      0.000      0.000      0.300      0.000 
      37      0.000      0.000      0.300      0.000 
      38      0.000      0.000      0.300      0.000 
      39      0.000      0.000      0.468      0.000 
      40      0.000      0.000      0.468      0.000 
      41      0.000      0.000      0.300      0.000 
      42      0.000      0.000      0.468      0.000 

Improper Coeffs 

       1      0.000      -1       2 
       2      0.000      -1       2 
       3      0.000      -1       2 
       4      0.000      -1       2 
       5      0.000      -1       2 
       6      0.000      -1       2 
       7      0.000      -1       2 
       8      0.000      -1       2 
       9      0.000      -1       2 
      10      0.000      -1       2 
      11      0.000      -1       2 
      12      0.000      -1       2 

Atoms 

     1      1      1 -0.39620000    1.000  1.00000  0.00000
     2      1      2 0.01580000   -0.440  1.00000  0.00000
     3      1      3 0.01580000    1.592  1.00000 -1.31220
     4      1      4 -0.18270000   -1.012  0.99819  1.43265
     5      1      5 -0.18270000    3.134  1.00181 -1.24516
     6      1      6 -0.23610000   -2.558  0.99999  1.43932
     7      1      7 -0.23610000    3.775  1.00001 -2.65101
     8      1      8 0.07250000   -0.808  0.11133 -0.52183
     9      1      9 0.07250000   -0.808  1.88999 -0.51959
    10      1     10 0.07250000    1.268  1.88864 -1.86222
    11      1     11 0.07250000    1.270  0.11004 -1.86129
    12      1     12 0.10200000   -0.651  1.88028  1.96819
    13      1     13 0.10200000   -0.653  0.11341  1.96513
    14      1     14 0.10200000    3.473  0.11977 -0.69582
    15      1     15 0.10200000    3.471  1.88655 -0.69897
    16      1     16 0.08410000   -2.934  0.99737  2.46263
    17      1     17 0.08410000   -2.943  1.88864  0.93407
    18      1     18 0.08410000   -2.945  0.11529  0.92876
    19      1     19 0.08410000    4.863  1.00263 -2.57328
    20      1     20 0.08410000    3.473  0.11133 -3.20960
    21      1     21 0.08410000    3.469  1.88473 -3.21370

Bonds 

     1      1      2      1
     2      2      3      1
     3      3      4      2
     4      4      5      3
     5      5      6      4
     6      6      7      5
     7      7      8      2
     8      8      9      2
     9      9     10      3
    10     10     11      3
    11     11     12      4
    12     12     13      4
    13     13     14      5
    14     14     15      5
    15     15     16      6
    16     16     17      6
    17     17     18      6
    18     18     19      7
    19     19     20      7
    20     20     21      7

Angles 

     1      1      2      1      3
     2      2      1      2      4
     3      3      1      3      5
     4      4      2      4      6
     5      5      3      5      7
     6      6      1      2      8
     7      7      1      2      9
     8      8      1      3     10
     9      9      1      3     11
    10     10      2      4     12
    11     11      2      4     13
    12     12      3      5     14
    13     13      3      5     15
    14     14      4      6     16
    15     15      4      6     17
    16     16      4      6     18
    17     17      5      7     19
    18     18      5      7     20
    19     19      5      7     21
    20     20      4      2      9
    21     21      4      2      8
    22     22      5      3     10
    23     23     17      6     18
    24     24      7      5     15
    25     25     16      6     17
    26     26     14      5     15
    27     27      6      4     13
    28     28     20      7     21
    29     29      8      2      9
    30     30      6      4     12
    31     31     12      4     13
    32     32     10      3     11
    33     33     19      7     21
    34     34     16      6     18
    35     35      5      3     11
    36     36     19      7     20
    37     37      7      5     14

Dihedrals

     1      1      4      2      1      3 
     2      2      5      3      1      2 
     3      3      6      4      2      1 
     4      4      7      5      3      1 
     5      5     16      6      4      2 
     6      6     19      7      5      3 
     7      7     21      7      5     14 
     8      8     20      7      5     15 
     9      9     15      5      3     11 
    10     10     12      4      2      8 
    11     11     16      6      4     12 
    12     12     11      3      5      7 
    13     13     19      7      5     14 
    14     14     15      5      3     10 
    15     15     13      4      2      8 
    16     16     13      4      2      9 
    17     17     18      6      4     12 
    18     18      9      2      1      3 
    19     19     21      7      5      3 
    20     20     19      7      5     15 
    21     21     12      4      2      9 
    22     22     12      4      2      1 
    23     23     14      5      3     10 
    24     24     11      3      1      2 
    25     25     16      6      4     13 
    26     26      9      2      4      6 
    27     27     20      7      5     14 
    28     28     17      6      4     12 
    29     29     18      6      4      2 
    30     30     20      7      5      3 
    31     31     17      6      4      2 
    32     32     14      5      3     11 
    33     33     18      6      4     13 
    34     34      8      2      1      3 
    35     35     10      3      1      2 
    36     36     21      7      5     15 
    37     37     10      3      5      7 
    38     38      8      2      4      6 
    39     39     13      4      2      1 
    40     40     14      5      3      1 
    41     41     17      6      4     13 
    42     42     15      5      3      1 

Impropers

     1      1      2      1      4      8 
     2      2      2      9      4      1 
     3      3      3      1     10      5 
     4      4      3      1     11      5 
     5      5      4      2     12      6 
     6      6      4      2     13      6 
     7      7      5      3     14      7 
     8      8      5      3      7     15 
     9      9      6     17      4     16 
    10     10      6     18      4     16 
    11     11      7     19     20      5 
    12     12      7      5     19     21 
