created by fftool

11838 atoms
11377 bonds
19507 angles
20299 dihedrals
31 atom types
28 bond types
47 angle types
49 dihedral types
0.000000 50.000000 xlo xhi
0.000000 50.000000 ylo yhi
0.000000 50.000000 zlo zhi

Masses

   1    1.008  # H00
   2   12.011  # C01
   3    1.008  # H02
   4   15.999  # O03
   5   12.011  # C04
   6   12.011  # C05
   7    1.008  # H06
   8    1.008  # H07
   9   15.999  # O08
  10   15.999  # O09
  11    1.008  # H000
  12   12.011  # C001
  13   12.011  # C002
  14    1.008  # H003
  15    1.008  # H004
  16   15.999  # O005
  17    1.008  # H006
  18    1.008  # H007
  19   12.011  # C008
  20   15.999  # O009
  21   15.999  # O00A
  22   12.011  # C00B
  23   12.011  # C00C
  24    1.008  # H00D
  25    1.008  # H00E
  26    1.008  # H00F
  27    1.008  # H00G
  28    1.008  # H00H
  29    6.941  # Li
  30   30.974  # P
  31   18.998  # FP

Bond Coeffs

   1   339.997610     1.090000  # C01-H00
   2   339.997610     1.090000  # H02-C01
   3   320.004780     1.410000  # O03-C01
   4   267.997132     1.529000  # C04-C01
   5   214.005736     1.327000  # C05-O03
   6   339.997610     1.090000  # H06-C04
   7   339.997610     1.090000  # H07-C04
   8   320.004780     1.410000  # O08-C04
   9   214.005736     1.327000  # O08-C05
  10   570.004780     1.229000  # O09-C05
  11   339.997610     1.090000  # C001-H000
  12   267.997132     1.529000  # C002-C001
  13   339.997610     1.090000  # H003-C001
  14   339.997610     1.090000  # H004-C001
  15   320.004780     1.410000  # O005-C002
  16   339.997610     1.090000  # H006-C002
  17   339.997610     1.090000  # H007-C002
  18   214.005736     1.327000  # C008-O005
  19   214.005736     1.327000  # O009-C008
  20   570.004780     1.229000  # O00A-C008
  21   320.004780     1.410000  # C00B-O009
  22   267.997132     1.529000  # C00C-C00B
  23   339.997610     1.090000  # H00D-C00B
  24   339.997610     1.090000  # H00E-C00B
  25   339.997610     1.090000  # H00F-C00C
  26   339.997610     1.090000  # H00G-C00C
  27   339.997610     1.090000  # H00H-C00C
  28   370.458891     1.606000  # P-F

Angle Coeffs

   1    32.994742   107.800000  # H00-C01-H02
   2    35.002390   109.500000  # H00-C01-O03
   3    37.500000   110.700000  # H00-C01-C04
   4    35.002390   109.500000  # H02-C01-O03
   5    37.500000   110.700000  # H02-C01-C04
   6    50.000000   109.500000  # O03-C01-C04
   7    82.994742   116.900000  # C01-O03-C05
   8    37.500000   110.700000  # C01-C04-H06
   9    37.500000   110.700000  # C01-C04-H07
  10    50.000000   109.500000  # C01-C04-O08
  11    32.994742   107.800000  # H06-C04-H07
  12    35.002390   109.500000  # H06-C04-O08
  13    35.002390   109.500000  # H07-C04-O08
  14    69.897228   118.200000  # O03-C05-O08
  15    82.994742   123.400000  # O03-C05-O09
  16    82.994742   123.400000  # O08-C05-O09
  17    82.994742   116.900000  # C04-O08-C05
  18    37.500000   110.700000  # H000-C001-C002
  19    32.994742   107.800000  # H000-C001-H003
  20    32.994742   107.800000  # H000-C001-H004
  21    37.500000   110.700000  # C002-C001-H003
  22    37.500000   110.700000  # C002-C001-H004
  23    32.994742   107.800000  # H003-C001-H004
  24    50.000000   109.500000  # C001-C002-O005
  25    37.500000   110.700000  # C001-C002-H006
  26    37.500000   110.700000  # C001-C002-H007
  27    35.002390   109.500000  # O005-C002-H006
  28    35.002390   109.500000  # O005-C002-H007
  29    32.994742   107.800000  # H006-C002-H007
  30    82.994742   116.900000  # C002-O005-C008
  31    69.897228   118.200000  # O005-C008-O009
  32    82.994742   123.400000  # O005-C008-O00A
  33    82.994742   123.400000  # O009-C008-O00A
  34    82.994742   116.900000  # C008-O009-C00B
  35    50.000000   109.500000  # O009-C00B-C00C
  36    35.002390   109.500000  # O009-C00B-H00D
  37    35.002390   109.500000  # O009-C00B-H00E
  38    37.500000   110.700000  # C00C-C00B-H00D
  39    37.500000   110.700000  # C00C-C00B-H00E
  40    32.994742   107.800000  # H00D-C00B-H00E
  41    37.500000   110.700000  # C00B-C00C-H00F
  42    37.500000   110.700000  # C00B-C00C-H00G
  43    37.500000   110.700000  # C00B-C00C-H00H
  44    32.994742   107.800000  # H00F-C00C-H00G
  45    32.994742   107.800000  # H00F-C00C-H00H
  46    32.994742   107.800000  # H00G-C00C-H00H
  47   139.220841    90.000000  # F-P-F

Dihedral Coeffs

   1     0.297084     0.000000     0.396033     0.000000  # C05-O03-C01-H00
   2     0.297084     0.000000     0.396033     0.000000  # C05-O03-C01-H02
   3     1.243069     0.125956     0.843929     0.000000  # C05-O03-C01-C04
   4     0.450048     0.000000     0.599904     0.000000  # H06-C04-C01-H00
   5     0.450048     0.000000     0.599904     0.000000  # H07-C04-C01-H00
   6     0.701960     0.000000     0.935946     0.000000  # O08-C04-C01-H00
   7     0.450048     0.000000     0.599904     0.000000  # H06-C04-C01-H02
   8     0.450048     0.000000     0.599904     0.000000  # H07-C04-C01-H02
   9     0.701960     0.000000     0.935946     0.000000  # O08-C04-C01-H02
  10     0.701960     0.000000     0.935946     0.000000  # H06-C04-C01-O03
  11     0.701960     0.000000     0.935946     0.000000  # H07-C04-C01-O03
  12     0.275096     0.000000     0.000000     0.000000  # O08-C04-C01-O03
  13     2.334608     5.124044     0.000000     0.000000  # O08-C05-O03-C01
  14     0.000000     5.124044     0.000000     0.000000  # O09-C05-O03-C01
  15     1.243069     0.125956     0.843929     0.000000  # C05-O08-C04-C01
  16     0.297084     0.000000     0.396033     0.000000  # H06-C04-O08-C05
  17     0.297084     0.000000     0.396033     0.000000  # H07-C04-O08-C05
  18     2.334608     5.124044     0.000000     0.000000  # C04-O08-C05-O03
  19     0.000000     5.124044     0.000000     0.000000  # O09-C05-O08-C04
  20     0.701960     0.000000     0.935946     0.000000  # O005-C002-C001-H000
  21     0.450048     0.000000     0.599904     0.000000  # H006-C002-C001-H000
  22     0.450048     0.000000     0.599904     0.000000  # H007-C002-C001-H000
  23     0.701960     0.000000     0.935946     0.000000  # O005-C002-C001-H003
  24     0.450048     0.000000     0.599904     0.000000  # H006-C002-C001-H003
  25     0.450048     0.000000     0.599904     0.000000  # H007-C002-C001-H003
  26     0.701960     0.000000     0.935946     0.000000  # O005-C002-C001-H004
  27     0.450048     0.000000     0.599904     0.000000  # H006-C002-C001-H004
  28     0.450048     0.000000     0.599904     0.000000  # H007-C002-C001-H004
  29     1.243069     0.125956     0.843929     0.000000  # C008-O005-C002-C001
  30     0.297084     0.000000     0.396033     0.000000  # C008-O005-C002-H006
  31     0.297084     0.000000     0.396033     0.000000  # C008-O005-C002-H007
  32     2.334608     5.124044     0.000000     0.000000  # O009-C008-O005-C002
  33     0.000000     5.124044     0.000000     0.000000  # O00A-C008-O005-C002
  34     2.334608     5.124044     0.000000     0.000000  # C00B-O009-C008-O005
  35     0.000000     5.124044     0.000000     0.000000  # C00B-O009-C008-O00A
  36     1.243069     0.125956     0.843929     0.000000  # C00C-C00B-O009-C008
  37     0.297084     0.000000     0.396033     0.000000  # H00D-C00B-O009-C008
  38     0.297084     0.000000     0.396033     0.000000  # H00E-C00B-O009-C008
  39     0.701960     0.000000     0.935946     0.000000  # H00F-C00C-C00B-O009
  40     0.701960     0.000000     0.935946     0.000000  # H00G-C00C-C00B-O009
  41     0.701960     0.000000     0.935946     0.000000  # H00H-C00C-C00B-O009
  42     0.450048     0.000000     0.599904     0.000000  # H00F-C00C-C00B-H00D
  43     0.450048     0.000000     0.599904     0.000000  # H00G-C00C-C00B-H00D
  44     0.450048     0.000000     0.599904     0.000000  # H00H-C00C-C00B-H00D
  45     0.450048     0.000000     0.599904     0.000000  # H00F-C00C-C00B-H00E
  46     0.450048     0.000000     0.599904     0.000000  # H00G-C00C-C00B-H00E
  47     0.450048     0.000000     0.599904     0.000000  # H00H-C00C-C00B-H00E
  48     0.000000    10.500000     0.000000     0.000000  # O03-O08-C05-O09
  49     0.000000    10.500000     0.000000     0.000000  # O005-O009-C008-O00A

Atoms

      1       1    1   0.133800  4.703875e+01  1.573538e+01  2.821090e+01  # H00 EC
      2       1    2  -0.045300  4.775848e+01  1.606883e+01  2.745894e+01  # C01 EC
      3       1    3   0.133800  4.855930e+01  1.533128e+01  2.736638e+01  # H02 EC
      4       1    4  -0.295800  4.827654e+01  1.724823e+01  2.776846e+01  # O03 EC
      5       1    5  -0.043500  4.708849e+01  1.638299e+01  2.610955e+01  # C04 EC
      6       1    6   0.584000  4.809556e+01  1.807746e+01  2.688733e+01  # C05 EC
      7       1    7   0.133700  4.599997e+01  1.629441e+01  2.615343e+01  # H06 EC
      8       1    8   0.133700  4.747658e+01  1.575933e+01  2.530035e+01  # H07 EC
      9       1    9  -0.298200  4.743702e+01  1.765065e+01  2.594418e+01  # O08 EC
     10       1   10  -0.436200  4.852943e+01  1.921743e+01  2.694180e+01  # O09 EC
     11       2    1   0.133800  1.633313e+01  4.419722e+01  2.411465e+01  # H00 EC
     12       2    2  -0.045300  1.577939e+01  4.505578e+01  2.372620e+01  # C01 EC
     13       2    3   0.133800  1.532819e+01  4.479608e+01  2.276557e+01  # H02 EC
     14       2    4  -0.295800  1.656227e+01  4.611394e+01  2.357589e+01  # O03 EC
     15       2    5  -0.043500  1.474805e+01  4.558968e+01  2.473601e+01  # C04 EC
     16       2    6   0.584000  1.615781e+01  4.708075e+01  2.420714e+01  # C05 EC
     17       2    7   0.133700  1.479740e+01  4.507084e+01  2.569675e+01  # H06 EC
     18       2    8   0.133700  1.372790e+01  4.554727e+01  2.434633e+01  # H07 EC
     19       2    9  -0.298200  1.515488e+01  4.684330e+01  2.487282e+01  # O08 EC
     20       2   10  -0.436200  1.669933e+01  4.817460e+01  2.417587e+01  # O09 EC
     21       3    1   0.133800  1.050821e+01  3.036077e+01  2.535287e+01  # H00 EC
     22       3    2  -0.045300  1.062989e+01  3.077102e+01  2.434711e+01  # C01 EC
     23       3    3   0.133800  1.086189e+01  2.996385e+01  2.364819e+01  # H02 EC
     24       3    4  -0.295800  1.159013e+01  3.168278e+01  2.430486e+01  # O03 EC
     25       3    5  -0.043500  9.411759e+00  3.160102e+01  2.390472e+01  # C04 EC
     26       3    6   0.584000  1.118528e+01  3.276069e+01  2.389137e+01  # C05 EC
     27       3    7   0.133700  8.666782e+00  3.170420e+01  2.469781e+01  # H06 EC
     28       3    8   0.133700  8.939723e+00  3.119561e+01  2.300629e+01  # H07 EC
     29       3    9  -0.298200  9.980819e+00  3.277191e+01  2.365785e+01  # O08 EC
     30       3   10  -0.436200  1.191012e+01  3.372928e+01  2.372644e+01  # O09 EC
     31       4    1   0.133800  3.789420e+01  4.186477e+01  3.158318e+00  # H00 EC
     32       4    2  -0.045300  3.743635e+01  4.285719e+01  3.147709e+00  # C01 EC
     33       4    3   0.133800  3.817003e+01  4.359521e+01  2.814723e+00  # H02 EC
     34       4    4  -0.295800  3.697886e+01  4.319637e+01  4.343885e+00  # O03 EC
     35       4    5  -0.043500  3.614373e+01  4.289401e+01  2.313304e+00  # C04 EC
     36       4    6   0.584000  3.578436e+01  4.346007e+01  4.323487e+00  # C05 EC
     37       4    7   0.133700  3.586124e+01  4.190723e+01  1.937662e+00  # H06 EC
     38       4    8   0.133700  3.620865e+01  4.360011e+01  1.481701e+00  # H07 EC
     39       4    9  -0.298200  3.526964e+01  4.330443e+01  3.220661e+00  # O08 EC
     40       4   10  -0.436200  3.516642e+01  4.384187e+01  5.304871e+00  # O09 EC
     41       5    1   0.133800  3.252219e+00  1.623129e+01  4.392656e+01  # H00 EC
     42       5    2  -0.045300  2.277775e+00  1.590296e+01  4.355601e+01  # C01 EC
     43       5    3   0.133800  1.496576e+00  1.655633e+01  4.395184e+01  # H02 EC
     44       5    4  -0.295800  2.022264e+00  1.464918e+01  4.389942e+01  # O03 EC
     45       5    5  -0.043500  2.240912e+00  1.580437e+01  4.202063e+01  # C04 EC
     46       5    6   0.584000  1.800785e+00  1.394029e+01  4.292721e+01  # C05 EC
     47       5    7   0.133700  3.214749e+00  1.600368e+01  4.156615e+01  # H06 EC
     48       5    8   0.133700  1.487775e+00  1.646383e+01  4.158216e+01  # H07 EC
     49       5    9  -0.298200  1.913168e+00  1.453087e+01  4.185765e+01  # O08 EC
     50       5   10  -0.436200  1.496538e+00  1.276105e+01  4.301418e+01  # O09 EC
     51       6    1   0.133800  6.198748e+00  6.046287e+00  2.788530e+01  # H00 EC
     52       6    2  -0.045300  6.358257e+00  6.410283e+00  2.686711e+01  # C01 EC
     53       6    3   0.133800  6.011109e+00  5.660757e+00  2.615189e+01  # H02 EC
     54       6    4  -0.295800  7.635125e+00  6.680860e+00  2.664002e+01  # O03 EC
     55       6    5  -0.043500  5.715775e+00  7.789090e+00  2.663354e+01  # C04 EC
     56       6    6   0.584000  7.805631e+00  7.839657e+00  2.628662e+01  # C05 EC
     57       6    7   0.133700  5.276867e+00  8.204646e+00  2.754421e+01  # H06 EC
     58       6    8   0.133700  4.964785e+00  7.765961e+00  2.583992e+01  # H07 EC
     59       6    9  -0.298200  6.772439e+00  8.501188e+00  2.627001e+01  # O08 EC
     60       6   10  -0.436200  8.897361e+00  8.291959e+00  2.597956e+01  # O09 EC
     61       7    1   0.133800  1.063567e+01  9.863004e+00  4.439952e+01  # H00 EC
     62       7    2  -0.045300  1.147818e+01  9.206528e+00  4.416744e+01  # C01 EC
     63       7    3   0.133800  1.220881e+01  9.748722e+00  4.356240e+01  # H02 EC
     64       7    4  -0.295800  1.108590e+01  8.119755e+00  4.351920e+01  # O03 EC
     65       7    5  -0.043500  1.210229e+01  8.589845e+00  4.543181e+01  # C04 EC
     66       7    6   0.584000  1.140680e+01  7.093318e+00  4.410248e+01  # C05 EC
     67       7    7   0.133700  1.155097e+01  8.850278e+00  4.633893e+01  # H06 EC
     68       7    8   0.133700  1.315405e+01  8.862732e+00  4.554874e+01  # H07 EC
     69       7    9  -0.298200  1.197066e+01  7.296997e+00  4.517298e+01  # O08 EC
     70       7   10  -0.436200  1.118795e+01  5.976253e+00  4.366088e+01  # O09 EC
     71       8    1   0.133800  2.362386e+01  1.560890e+01  4.278074e+01  # H00 EC
     72       8    2  -0.045300  2.337188e+01  1.572217e+01  4.383825e+01  # C01 EC
     73       8    3   0.133800  2.272981e+01  1.659639e+01  4.396991e+01  # H02 EC
     74       8    4  -0.295800  2.445688e+01  1.585304e+01  4.458713e+01  # O03 EC
     75       8    5  -0.043500  2.275395e+01  1.444320e+01  4.443057e+01  # C04 EC
     76       8    6   0.584000  2.452185e+01  1.499734e+01  4.545910e+01  # C05 EC
     77       8    7   0.133700  2.274304e+01  1.361566e+01  4.371663e+01  # H06 EC
     78       8    8   0.133700  2.174487e+01  1.461151e+01  4.481498e+01  # H07 EC
     79       8    9  -0.298200  2.360280e+01  1.418568e+01  4.541491e+01  # O08 EC
     80       8   10  -0.436200  2.541374e+01  1.495687e+01  4.629195e+01  # O09 EC
     81       9    1   0.133800  4.660519e+01  4.333355e+01  1.874080e+00  # H00 EC
     82       9    2  -0.045300  4.760807e+01  4.363379e+01  2.188316e+00  # C01 EC
     83       9    3   0.133800  4.834734e+01  4.321722e+01  1.500000e+00  # H02 EC
     84       9    4  -0.295800  4.787445e+01  4.322976e+01  3.421594e+00  # O03 EC
     85       9    5  -0.043500  4.773906e+01  4.515964e+01  2.340226e+00  # C04 EC
     86       9    6   0.584000  4.817157e+01  4.416036e+01  4.158130e+00  # C05 EC
     87       9    7   0.133700  4.678934e+01  4.567763e+01  2.184119e+00  # H06 EC
     88       9    8   0.133700  4.850000e+01  4.557722e+01  1.676195e+00  # H07 EC
     89       9    9  -0.298200  4.810826e+01  4.525581e+01  3.609168e+00  # O08 EC
     90       9   10  -0.436200  4.850000e+01  4.401205e+01  5.324697e+00  # O09 EC
     91      10    1   0.133800  1.864370e+01  6.112118e+00  3.828773e+01  # H00 EC
     92      10    2  -0.045300  1.881269e+01  7.032127e+00  3.885313e+01  # C01 EC
     93      10    3   0.133800  1.966661e+01  6.899213e+00  3.952171e+01  # H02 EC
     94      10    4  -0.295800  1.774564e+01  7.373231e+00  3.956039e+01  # O03 EC
     95      10    5  -0.043500  1.896736e+01  8.259197e+00  3.793726e+01  # C04 EC
     96      10    6   0.584000  1.734744e+01  8.496205e+00  3.928265e+01  # C05 EC
     97      10    7   0.133700  1.880531e+01  8.016791e+00  3.688387e+01  # H06 EC
     98      10    8   0.133700  1.993861e+01  8.745381e+00  3.805827e+01  # H07 EC
     99      10    9  -0.298200  1.798795e+01  9.031982e+00  3.838372e+01  # O08 EC
    100      10   10  -0.436200  1.640558e+01  9.030794e+00  3.984644e+01  # O09 EC
    101      11    1   0.133800  4.811075e+01  2.131358e+01  4.550781e+00  # H00 EC
    102      11    2  -0.045300  4.749550e+01  2.114082e+01  5.437500e+00  # C01 EC
    103      11    3   0.133800  4.644465e+01  2.131369e+01  5.193193e+00  # H02 EC
    104      11    4  -0.295800  4.785236e+01  2.192961e+01  6.440313e+00  # O03 EC
    105      11    5  -0.043500  4.773612e+01  1.975062e+01  6.052231e+00  # C04 EC
    106      11    6   0.584000  4.815771e+01  2.129493e+01  7.440673e+00  # C05 EC
    107      11    7   0.133700  4.853499e+01  1.920295e+01  5.545769e+00  # H06 EC
    108      11    8   0.133700  4.682738e+01  1.914380e+01  6.070177e+00  # H07 EC
    109      11    9  -0.298200  4.811462e+01  2.007948e+01  7.278753e+00  # O08 EC
    110      11   10  -0.436200  4.847300e+01  2.182075e+01  8.496535e+00  # O09 EC
    111      12    1   0.133800  1.477167e+01  1.499565e+00  2.604579e+00  # H00 EC
    112      12    2  -0.045300  1.452804e+01  2.476944e+00  2.180285e+00  # C01 EC
    113      12    3   0.133800  1.367897e+01  2.379097e+00  1.499587e+00  # H02 EC
    114      12    4  -0.295800  1.555858e+01  2.997478e+00  1.530517e+00  # O03 EC
    115      12    5  -0.043500  1.429243e+01  3.541628e+00  3.266279e+00  # C04 EC
    116      12    6   0.584000  1.587485e+01  4.094600e+00  1.969913e+00  # C05 EC
    117      12    7   0.133700  1.448399e+01  3.160710e+00  4.272681e+00  # H06 EC
    118      12    8   0.133700  1.328626e+01  3.965477e+00  3.218067e+00  # H07 EC
    119      12    9  -0.298200  1.520626e+01  4.443186e+00  2.937828e+00  # O08 EC
    120      12   10  -0.436200  1.676772e+01  4.775533e+00  1.490475e+00  # O09 EC
    121      13    1   0.133800  2.327178e+01  2.741541e+01  2.256386e+01  # H00 EC
    122      13    2  -0.045300  2.217879e+01  2.741524e+01  2.256798e+01  # C01 EC
    123      13    3   0.133800  2.180984e+01  2.811697e+01  2.181612e+01  # H02 EC
    124      13    4  -0.295800  2.169523e+01  2.774517e+01  2.375646e+01  # O03 EC
    125      13    5  -0.043500  2.159533e+01  2.600218e+01  2.239113e+01  # C04 EC
    126      13    6   0.584000  2.095706e+01  2.688155e+01  2.421040e+01  # C05 EC
    127      13    7   0.133700  2.236937e+01  2.523080e+01  2.236926e+01  # H06 EC
    128      13    8   0.133700  2.096997e+01  2.592205e+01  2.149847e+01  # H07 EC
    129      13    9  -0.298200  2.086951e+01  2.588936e+01  2.349396e+01  # O08 EC
    130      13   10  -0.436200  2.036505e+01  2.699743e+01  2.527192e+01  # O09 EC
    131      14    1   0.133800  1.484230e+00  1.166462e+01  3.271141e+00  # H00 EC
    132      14    2  -0.045300  2.013446e+00  1.086209e+01  2.751032e+00  # C01 EC
    133      14    3   0.133800  1.981913e+00  1.104107e+01  1.673621e+00  # H02 EC
    134      14    4  -0.295800  1.486159e+00  9.676480e+00  3.018397e+00  # O03 EC
    135      14    5  -0.043500  3.448277e+00  1.067465e+01  3.275034e+00  # C04 EC
    136      14    6   0.584000  2.306730e+00  8.902629e+00  3.492306e+00  # C05 EC
    137      14    7   0.133700  3.668782e+00  1.132127e+01  4.128207e+00  # H06 EC
    138      14    8   0.133700  4.196861e+00  1.082758e+01  2.493634e+00  # H07 EC
    139      14    9  -0.298200  3.412431e+00  9.407276e+00  3.660062e+00  # O08 EC
    140      14   10  -0.436200  2.049609e+00  7.741694e+00  3.769541e+00  # O09 EC
    141      15    1   0.133800  1.297333e+01  4.067041e+01  9.024383e+00  # H00 EC
    142      15    2  -0.045300  1.353169e+01  3.976105e+01  9.260935e+00  # C01 EC
    143      15    3   0.133800  1.313300e+01  3.892541e+01  8.680767e+00  # H02 EC
    144      15    4  -0.295800  1.346996e+01  3.947257e+01  1.055250e+01  # O03 EC
    145      15    5  -0.043500  1.504791e+01  3.994122e+01  9.068403e+00  # C04 EC
    146      15    6   0.584000  1.457961e+01  3.939705e+01  1.106214e+01  # C05 EC
    147      15    7   0.133700  1.531594e+01  4.096717e+01  8.803392e+00  # H06 EC
    148      15    8   0.133700  1.545514e+01  3.925048e+01  8.325836e+00  # H07 EC
    149      15    9  -0.298200  1.549225e+01  3.965255e+01  1.028290e+01  # O08 EC
    150      15   10  -0.436200  1.475992e+01  3.909558e+01  1.223147e+01  # O09 EC
    151      16    1   0.133800  3.186476e+01  1.808600e+00  3.279039e+01  # H00 EC
    152      16    2  -0.045300  3.251096e+01  2.173107e+00  3.198776e+01  # C01 EC
    153      16    3   0.133800  3.346331e+01  1.638106e+00  3.201313e+01  # H02 EC
    154      16    4  -0.295800  3.273180e+01  3.475206e+00  3.209236e+01  # O03 EC
    155      16    5  -0.043500  3.182914e+01  2.096630e+00  3.061019e+01  # C04 EC
    156      16    6   0.584000  3.239147e+01  4.083340e+00  3.108682e+01  # C05 EC
    157      16    7   0.133700  3.078990e+01  1.764672e+00  3.067675e+01  # H06 EC
    158      16    8   0.133700  3.237633e+01  1.456974e+00  2.991321e+01  # H07 EC
    159      16    9  -0.298200  3.187963e+01  3.365917e+00  3.023317e+01  # O08 EC
    160      16   10  -0.436200  3.254759e+01  5.286195e+00  3.094716e+01  # O09 EC
    161      17    1   0.133800  3.804736e+01  4.300006e+01  3.651312e+01  # H00 EC
    162      17    2  -0.045300  3.879889e+01  4.331527e+01  3.724148e+01  # C01 EC
    163      17    3   0.133800  3.937170e+01  4.244685e+01  3.757551e+01  # H02 EC
    164      17    4  -0.295800  3.824506e+01  4.390946e+01  3.828809e+01  # O03 EC
    165      17    5  -0.043500  3.969803e+01  4.444139e+01  3.670125e+01  # C04 EC
    166      17    6   0.584000  3.867989e+01  4.503991e+01  3.846067e+01  # C05 EC
    167      17    7   0.133700  3.938470e+01  4.478786e+01  3.571311e+01  # H06 EC
    168      17    8   0.133700  4.075141e+01  4.415161e+01  3.667318e+01  # H07 EC
    169      17    9  -0.298200  3.948730e+01  4.538750e+01  3.760471e+01  # O08 EC
    170      17   10  -0.436200  3.834349e+01  4.575106e+01  3.939439e+01  # O09 EC
    171      18    1   0.133800  3.535803e+01  3.780662e+01  3.631088e+01  # H00 EC
    172      18    2  -0.045300  3.433968e+01  3.777480e+01  3.591515e+01  # C01 EC
    173      18    3   0.133800  3.362921e+01  3.799841e+01  3.671458e+01  # H02 EC
    174      18    4  -0.295800  3.405701e+01  3.659188e+01  3.538983e+01  # O03 EC
    175      18    5  -0.043500  3.415990e+01  3.869351e+01  3.469364e+01  # C04 EC
    176      18    6   0.584000  3.371542e+01  3.667689e+01  3.421814e+01  # C05 EC
    177      18    7   0.133700  3.509715e+01  3.916152e+01  3.438191e+01  # H06 EC
    178      18    8   0.133700  3.340242e+01  3.946283e+01  3.486309e+01  # H07 EC
    179      18    9  -0.298200  3.375879e+01  3.782199e+01  3.377967e+01  # O08 EC
    180      18   10  -0.436200  3.336468e+01  3.571576e+01  3.355184e+01  # O09 EC
    181      19    1   0.133800  4.274579e+01  1.033224e+01  1.913427e+01  # H00 EC
    182      19    2  -0.045300  4.286374e+01  1.120689e+01  1.977905e+01  # C01 EC
    183      19    3   0.133800  4.229270e+01  1.106281e+01  2.069938e+01  # H02 EC
    184      19    4  -0.295800  4.245978e+01  1.231543e+01  1.917644e+01  # O03 EC
    185      19    5  -0.043500  4.434244e+01  1.153691e+01  2.004916e+01  # C04 EC
    186      19    6   0.584000  4.334319e+01  1.316014e+01  1.912340e+01  # C05 EC
    187      19    7   0.133700  4.502329e+01  1.089024e+01  1.948977e+01  # H06 EC
    188      19    8   0.133700  4.458711e+01  1.149657e+01  2.111352e+01  # H07 EC
    189      19    9  -0.298200  4.441154e+01  1.277807e+01  1.959034e+01  # O08 EC
    190      19   10  -0.436200  4.317638e+01  1.427435e+01  1.865280e+01  # O09 EC
    191      20    1   0.133800  1.599424e+00  4.850434e+01  3.529310e+01  # H00 EC
    192      20    2  -0.045300  1.901141e+00  4.777771e+01  3.605180e+01  # C01 EC
    193      20    3   0.133800  1.491380e+00  4.679612e+01  3.580193e+01  # H02 EC
    194      20    4  -0.295800  1.490380e+00  4.813440e+01  3.725979e+01  # O03 EC
    195      20    5  -0.043500  3.426457e+00  4.774498e+01  3.625376e+01  # C04 EC
    196      20    6   0.584000  2.417400e+00  4.823339e+01  3.805200e+01  # C05 EC
    197      20    7   0.133700  3.942147e+00  4.850589e+01  3.566239e+01  # H06 EC
    198      20    8   0.133700  3.850760e+00  4.676107e+01  3.603877e+01  # H07 EC
    199      20    9  -0.298200  3.516016e+00  4.803164e+01  3.754434e+01  # O08 EC
    200      20   10  -0.436200  2.262983e+00  4.850514e+01  3.923228e+01  # O09 EC
    201      21    1   0.133800  2.987385e+01  3.458625e+00  1.485605e+00  # H00 EC
    202      21    2  -0.045300  2.938127e+01  4.063519e+00  2.251182e+00  # C01 EC
    203      21    3   0.133800  2.923832e+01  3.465398e+00  3.154324e+00  # H02 EC
    204      21    4  -0.295800  2.821022e+01  4.520763e+00  1.833140e+00  # O03 EC
    205      21    5  -0.043500  3.013227e+01  5.377941e+00  2.528189e+00  # C04 EC
    206      21    6   0.584000  2.814647e+01  5.741464e+00  1.884108e+00  # C05 EC
    207      21    7   0.133700  3.098543e+01  5.519938e+00  1.859913e+00  # H06 EC
    208      21    8   0.133700  3.046152e+01  5.454645e+00  3.567449e+00  # H07 EC
    209      21    9  -0.298200  2.918880e+01  6.268705e+00  2.259539e+00  # O08 EC
    210      21   10  -0.436200  2.714286e+01  6.372037e+00  1.591038e+00  # O09 EC
    211      22    1   0.133800  1.015643e+01  4.712514e+01  2.702699e+01  # H00 EC
    212      22    2  -0.045300  1.044919e+01  4.779975e+01  2.621839e+01  # C01 EC
    213      22    3   0.133800  1.107209e+01  4.860295e+01  2.661930e+01  # H02 EC
    214      22    4  -0.295800  9.393263e+00  4.831995e+01  2.561045e+01  # O03 EC
    215      22    5  -0.043500  1.112603e+01  4.705501e+01  2.505405e+01  # C04 EC
    216      22    6   0.584000  9.388182e+00  4.808257e+01  2.441028e+01  # C05 EC
    217      22    7   0.133700  1.112969e+01  4.597149e+01  2.519762e+01  # H06 EC
    218      22    8   0.133700  1.214532e+01  4.740648e+01  2.487555e+01  # H07 EC
    219      22    9  -0.298200  1.032640e+01  4.737953e+01  2.404853e+01  # O08 EC
    220      22   10  -0.436200  8.533314e+00  4.850552e+01  2.364801e+01  # O09 EC
    221      23    1   0.133800  9.564582e+00  4.960204e+00  4.855504e+01  # H00 EC
    222      23    2  -0.045300  9.996256e+00  4.568449e+00  4.763047e+01  # C01 EC
    223      23    3   0.133800  9.498238e+00  5.025074e+00  4.677180e+01  # H02 EC
    224      23    4  -0.295800  9.882410e+00  3.250463e+00  4.755887e+01  # O03 EC
    225      23    5  -0.043500  1.152512e+01  4.738084e+00  4.758320e+01  # C04 EC
    226      23    6   0.584000  1.096668e+01  2.700187e+00  4.742346e+01  # C05 EC
    227      23    7   0.133700  1.192826e+01  5.149614e+00  4.851205e+01  # H06 EC
    228      23    8   0.133700  1.184688e+01  5.351771e+00  4.673809e+01  # H07 EC
    229      23    9  -0.298200  1.191382e+01  3.480049e+00  4.743475e+01  # O08 EC
    230      23   10  -0.436200  1.109248e+01  1.493188e+00  4.728905e+01  # O09 EC
    231      24    1   0.133800  3.962478e+01  1.841036e+01  1.857381e+01  # H00 EC
    232      24    2  -0.045300  3.918668e+01  1.921063e+01  1.797190e+01  # C01 EC
    233      24    3   0.133800  3.886692e+01  2.002642e+01  1.862465e+01  # H02 EC
    234      24    4  -0.295800  3.815326e+01  1.877904e+01  1.726412e+01  # O03 EC
    235      24    5  -0.043500  4.013386e+01  1.968611e+01  1.685601e+01  # C04 EC
    236      24    6   0.584000  3.830310e+01  1.896985e+01  1.606499e+01  # C05 EC
    237      24    7   0.133700  4.105016e+01  1.909244e+01  1.680526e+01  # H06 EC
    238      24    8   0.133700  4.038585e+01  2.074525e+01  1.695128e+01  # H07 EC
    239      24    9  -0.298200  3.938838e+01  1.946764e+01  1.578256e+01  # O08 EC
    240      24   10  -0.436200  3.745448e+01  1.869279e+01  1.523204e+01  # O09 EC
    241      25    1   0.133800  2.162364e+01  4.085167e+01  2.990007e+01  # H00 EC
    242      25    2  -0.045300  2.175893e+01  3.984928e+01  2.948586e+01  # C01 EC
    243      25    3   0.133800  2.164954e+01  3.910715e+01  3.028030e+01  # H02 EC
    244      25    4  -0.295800  2.294624e+01  3.971374e+01  2.891394e+01  # O03 EC
    245      25    5  -0.043500  2.082237e+01  3.957932e+01  2.829488e+01  # C04 EC
    246      25    6   0.584000  2.285782e+01  3.937989e+01  2.774027e+01  # C05 EC
    247      25    7   0.133700  2.023717e+01  4.045941e+01  2.801631e+01  # H06 EC
    248      25    8   0.133700  2.015328e+01  3.873494e+01  2.847845e+01  # H07 EC
    249      25    9  -0.298200  2.169987e+01  3.929482e+01  2.734366e+01  # O08 EC
    250      25   10  -0.436200  2.382766e+01  3.915267e+01  2.703421e+01  # O09 EC
    251      26    1   0.133800  2.072476e+00  3.131667e+01  3.268411e+01  # H00 EC
    252      26    2  -0.045300  2.487760e+00  3.232742e+01  3.266018e+01  # C01 EC
    253      26    3   0.133800  1.681541e+00  3.305700e+01  3.276775e+01  # H02 EC
    254      26    4  -0.295800  3.146028e+00  3.255800e+01  3.153382e+01  # O03 EC
    255      26    5  -0.043500  3.602987e+00  3.252433e+01  3.370227e+01  # C04 EC
    256      26    6   0.584000  4.307099e+00  3.288598e+01  3.173660e+01  # C05 EC
    257      26    7   0.133700  3.843803e+00  3.160102e+01  3.423533e+01  # H06 EC
    258      26    8   0.133700  3.363124e+00  3.331250e+01  3.442032e+01  # H07 EC
    259      26    9  -0.298200  4.615075e+00  3.287948e+01  3.292424e+01  # O08 EC