created by fftool

10194 atoms
9257 bonds
15928 angles
12255 dihedrals
17 atom types
14 bond types
24 angle types
17 dihedral types
0.000000 50.000000 xlo xhi
0.000000 50.000000 ylo yhi
0.000000 50.000000 zlo zhi

Masses

   1    1.008  # H00
   2   12.011  # C01
   3   15.999  # O02
   4    1.008  # H03
   5    1.008  # H04
   6   12.011  # C05
   7   12.011  # C06
   8    1.008  # H07
   9    1.008  # H08
  10   18.998  # F09
  11   18.998  # F0A
  12    1.008  # H0B
  13    6.941  # Li
  14   18.998  # FSI
  15   32.066  # SBT
  16   14.000  # NBT
  17   15.999  # OBT

Bond Coeffs

   1   339.997610     1.090000  # C01-H00
   2   320.004780     1.410000  # O02-C01
   3   339.997610     1.090000  # H03-C01
   4   339.997610     1.090000  # H04-C01
   5   320.004780     1.410000  # C05-O02
   6   267.997132     1.529000  # C06-C05
   7   339.997610     1.090000  # H07-C05
   8   339.997610     1.090000  # H08-C05
   9   367.005258     1.360000  # F09-C06
  10   367.005258     1.360000  # F0A-C06
  11   339.997610     1.090000  # H0B-C06
  12   224.545889     1.575000  # FB-SB
  13   374.880497     1.570000  # NB-SB
  14   637.069790     1.437000  # SB-OB

Angle Coeffs

   1    35.002390   109.500000  # H00-C01-O02
   2    32.994742   107.800000  # H00-C01-H03
   3    32.994742   107.800000  # H00-C01-H04
   4    35.002390   109.500000  # O02-C01-H03
   5    35.002390   109.500000  # O02-C01-H04
   6    32.994742   107.800000  # H03-C01-H04
   7    60.002390   109.500000  # C01-O02-C05
   8    50.000000   109.500000  # O02-C05-C06
   9    35.002390   109.500000  # O02-C05-H07
  10    35.002390   109.500000  # O02-C05-H08
  11    37.500000   110.700000  # C06-C05-H07
  12    37.500000   110.700000  # C06-C05-H08
  13    32.994742   107.800000  # H07-C05-H08
  14    50.000000   109.500000  # C05-C06-F09
  15    50.000000   109.500000  # C05-C06-F0A
  16    37.500000   110.700000  # C05-C06-H0B
  17    76.995698   109.100000  # F09-C06-F0A
  18    39.997610   107.000000  # F09-C06-H0B
  19    39.997610   107.000000  # F0A-C06-H0B
  20   107.791587   103.000000  # FB-SB-NB
  21   128.704589   104.100000  # FB-SB-OB
  22    94.287763   113.600000  # NB-SB-OB
  23   115.798279   118.500000  # OB-SB-OB
  24    80.186424   125.600000  # SB-NB-SB

Dihedral Coeffs

   1     1.140057     0.000000     1.520076     0.000000  # C05-O02-C01-H00
   2     1.140057     0.000000     1.520076     0.000000  # C05-O02-C01-H03
   3     1.140057     0.000000     1.520076     0.000000  # C05-O02-C01-H04
   4     0.679971     0.250000     1.340105     0.000000  # C06-C05-O02-C01
   5     1.140057     0.000000     1.520076     0.000000  # H07-C05-O02-C01
   6     1.140057     0.000000     1.520076     0.000000  # H08-C05-O02-C01
   7     0.809990     0.000000     1.080067     0.000000  # F09-C06-C05-O02
   8     0.809990     0.000000     1.080067     0.000000  # F0A-C06-C05-O02
   9     0.701960     0.000000     0.935946     0.000000  # H0B-C06-C05-O02
  10     0.539914     0.000000     0.719885     0.000000  # F09-C06-C05-H07
  11     0.539914     0.000000     0.719885     0.000000  # F0A-C06-C05-H07
  12     0.450048     0.000000     0.599904     0.000000  # H0B-C06-C05-H07
  13     0.539914     0.000000     0.719885     0.000000  # F09-C06-C05-H08
  14     0.539914     0.000000     0.719885     0.000000  # F0A-C06-C05-H08
  15     0.450048     0.000000     0.599904     0.000000  # H0B-C06-C05-H08
  16     2.735421    -3.629541    -0.767686     0.000000  # FB-SB-NB-SB
  17     0.000000     0.000000    -0.003585     0.000000  # OB-SB-NB-SB

Atoms

      1       1    1   0.086800  3.061769e+01  1.878251e+01  2.914499e+01  # H00 FEME
      2       1    2  -0.053800  3.071859e+01  1.771150e+01  2.933840e+01  # C01 FEME
      3       1    3  -0.354900  3.057905e+01  1.749458e+01  3.073611e+01  # O02 FEME
      4       1    4   0.086800  2.993411e+01  1.718213e+01  2.878858e+01  # H03 FEME
      5       1    5   0.086800  3.170661e+01  1.738683e+01  2.899732e+01  # H04 FEME
      6       1    6  -0.070100  3.070118e+01  1.611719e+01  3.106417e+01  # C05 FEME
      7       1    7   0.246800  3.054496e+01  1.593294e+01  3.255540e+01  # C06 FEME
      8       1    8   0.099800  3.168841e+01  1.575976e+01  3.075120e+01  # H07 FEME
      9       1    9   0.099800  2.992161e+01  1.555151e+01  3.054238e+01  # H08 FEME
     10       1   10  -0.169400  3.148769e+01  1.665341e+01  3.321064e+01  # F09 FEME
     11       1   11  -0.169400  2.933764e+01  1.640250e+01  3.295426e+01  # F0A FEME
     12       1   12   0.110800  3.063367e+01  1.488447e+01  3.285174e+01  # H0B FEME
     13       2    1   0.086800  2.265224e+01  4.454715e+01  7.151412e+00  # H00 FEME
     14       2    2  -0.053800  2.346345e+01  4.522643e+01  7.425554e+00  # C01 FEME
     15       2    3  -0.354900  2.379279e+01  4.601165e+01  6.287533e+00  # O02 FEME
     16       2    4   0.086800  2.312143e+01  4.586546e+01  8.245681e+00  # H03 FEME
     17       2    5   0.086800  2.432539e+01  4.463085e+01  7.742226e+00  # H04 FEME
     18       2    6  -0.070100  2.484694e+01  4.692194e+01  6.570180e+00  # C05 FEME
     19       2    7   0.246800  2.516223e+01  4.773509e+01  5.336704e+00  # C06 FEME
     20       2    8   0.099800  2.573546e+01  4.635855e+01  6.875911e+00  # H07 FEME
     21       2    9   0.099800  2.453796e+01  4.759153e+01  7.380224e+00  # H08 FEME
     22       2   10  -0.169400  2.551720e+01  4.691222e+01  4.319827e+00  # F09 FEME
     23       2   11  -0.169400  2.405784e+01  4.841017e+01  4.934486e+00  # F0A FEME
     24       2   12   0.110800  2.597121e+01  4.844940e+01  5.510741e+00  # H0B FEME
     25       3    1   0.086800  3.579853e+01  3.295228e+01  3.545242e+01  # H00 FEME
     26       3    2  -0.053800  3.640023e+01  3.205706e+01  3.562900e+01  # C01 FEME
     27       3    3  -0.354900  3.552407e+01  3.094263e+01  3.573151e+01  # O02 FEME
     28       3    4   0.086800  3.708800e+01  3.192725e+01  3.478753e+01  # H03 FEME
     29       3    5   0.086800  3.696006e+01  3.219085e+01  3.655992e+01  # H04 FEME
     30       3    6  -0.070100  3.623978e+01  2.973707e+01  3.596417e+01  # C05 FEME
     31       3    7   0.246800  3.527206e+01  2.858139e+01  3.606432e+01  # C06 FEME
     32       3    8   0.099800  3.680159e+01  2.982807e+01  3.690034e+01  # H07 FEME
     33       3    9   0.099800  3.693255e+01  2.956273e+01  3.513370e+01  # H08 FEME
     34       3   10  -0.169400  3.439187e+01  2.880249e+01  3.707106e+01  # F09 FEME
     35       3   11  -0.169400  3.455115e+01  2.848296e+01  3.492073e+01  # F0A FEME
     36       3   12   0.110800  3.578272e+01  2.763188e+01  3.624493e+01  # H0B FEME
     37       4    1   0.086800  2.976591e+01  3.615706e+01  1.372751e+01  # H00 FEME
     38       4    2  -0.053800  2.902200e+01  3.690403e+01  1.343894e+01  # C01 FEME
     39       4    3  -0.354900  2.788625e+01  3.675184e+01  1.427979e+01  # O02 FEME
     40       4    4   0.086800  2.946013e+01  3.789923e+01  1.356368e+01  # H03 FEME
     41       4    5   0.086800  2.874848e+01  3.673796e+01  1.239227e+01  # H04 FEME
     42       4    6  -0.070100  2.687138e+01  3.769388e+01  1.395990e+01  # C05 FEME
     43       4    7   0.246800  2.568693e+01  3.749769e+01  1.487680e+01  # C06 FEME
     44       4    8   0.099800  2.655948e+01  3.754636e+01  1.292005e+01  # H07 FEME
     45       4    9   0.099800  2.726723e+01  3.870748e+01  1.408600e+01  # H08 FEME
     46       4   10  -0.169400  2.520855e+01  3.623594e+01  1.474913e+01  # F09 FEME
     47       4   11  -0.169400  2.607288e+01  3.764758e+01  1.616745e+01  # F0A FEME
     48       4   12   0.110800  2.488015e+01  3.820370e+01  1.466321e+01  # H0B FEME
     49       5    1   0.086800  4.428246e+01  4.290134e+01  1.119452e+01  # H00 FEME
     50       5    2  -0.053800  4.423308e+01  4.185796e+01  1.087273e+01  # C01 FEME
     51       5    3  -0.354900  4.479564e+01  4.104752e+01  1.189588e+01  # O02 FEME
     52       5    4   0.086800  4.318405e+01  4.159291e+01  1.070770e+01  # H03 FEME
     53       5    5   0.086800  4.480225e+01  4.175189e+01  9.943902e+00  # H04 FEME
     54       5    6  -0.070100  4.476698e+01  3.967074e+01  1.154463e+01  # C05 FEME
     55       5    7   0.246800  4.537138e+01  3.884822e+01  1.265830e+01  # C06 FEME
     56       5    8   0.099800  4.534295e+01  3.952293e+01  1.062444e+01  # H07 FEME
     57       5    9   0.099800  4.372865e+01  3.936099e+01  1.138363e+01  # H08 FEME
     58       5   10  -0.169400  4.664753e+01  3.924493e+01  1.288465e+01  # F09 FEME
     59       5   11  -0.169400  4.468243e+01  3.905112e+01  1.380780e+01  # F0A FEME
     60       5   12   0.110800  4.537023e+01  3.777969e+01  1.242758e+01  # H0B FEME
     61       6    1   0.086800  4.452750e+01  2.056015e+01  3.548473e+00  # H00 FEME
     62       6    2  -0.053800  4.469492e+01  2.156685e+01  3.157111e+00  # C01 FEME
     63       6    3  -0.354900  4.609595e+01  2.177000e+01  3.030623e+00  # O02 FEME
     64       6    4   0.086800  4.420668e+01  2.164745e+01  2.180858e+00  # H03 FEME
     65       6    5   0.086800  4.426496e+01  2.228960e+01  3.857604e+00  # H04 FEME
     66       6    6  -0.070100  4.639095e+01  2.306541e+01  2.526045e+00  # C05 FEME
     67       6    7   0.246800  4.788706e+01  2.323693e+01  2.406370e+00  # C06 FEME
     68       6    8   0.099800  4.598854e+01  2.381836e+01  3.212685e+00  # H07 FEME
     69       6    9   0.099800  4.592964e+01  2.318198e+01  1.539334e+00  # H08 FEME
     70       6   10  -0.169400  4.846963e+01  2.306498e+01  3.618068e+00  # F09 FEME
     71       6   11  -0.169400  4.839573e+01  2.228820e+01  1.582740e+00  # F0A FEME
     72       6   12   0.110800  4.815843e+01  2.422355e+01  2.021758e+00  # H0B FEME
     73       7    1   0.086800  2.834064e+01  5.930946e+00  2.300597e+01  # H00 FEME
     74       7    2  -0.053800  2.829516e+01  6.072812e+00  2.192317e+01  # C01 FEME
     75       7    3  -0.354900  2.826545e+01  7.468481e+00  2.165607e+01  # O02 FEME
     76       7    4   0.086800  2.918234e+01  5.615775e+00  2.147374e+01  # H03 FEME
     77       7    5   0.086800  2.738750e+01  5.591392e+00  2.154593e+01  # H04 FEME
     78       7    6  -0.070100  2.820410e+01  7.730526e+00  2.026061e+01  # C05 FEME
     79       7    7   0.246800  2.817614e+01  9.222148e+00  2.002316e+01  # C06 FEME
     80       7    8   0.099800  2.729595e+01  7.275936e+00  1.984955e+01  # H07 FEME
     81       7    9   0.099800  2.908543e+01  7.299359e+00  1.977343e+01  # H08 FEME
     82       7   10  -0.169400  2.710445e+01  9.768787e+00  2.064753e+01  # F09 FEME
     83       7   11  -0.169400  2.928220e+01  9.795125e+00  2.055750e+01  # F0A FEME
     84       7   12   0.110800  2.812751e+01  9.468356e+00  1.895921e+01  # H0B FEME
     85       8    1   0.086800  3.316888e+01  4.336070e+01  2.557558e+01  # H00 FEME
     86       8    2  -0.053800  3.297943e+01  4.254315e+01  2.627585e+01  # C01 FEME
     87       8    3  -0.354900  3.324374e+01  4.131496e+01  2.561116e+01  # O02 FEME
     88       8    4   0.086800  3.364234e+01  4.266196e+01  2.713863e+01  # H03 FEME
     89       8    5   0.086800  3.193261e+01  4.258988e+01  2.659193e+01  # H04 FEME
     90       8    6  -0.070100  3.301611e+01  4.020146e+01  2.646440e+01  # C05 FEME
     91       8    7   0.246800  3.331021e+01  3.892048e+01  2.571961e+01  # C06 FEME
     92       8    8   0.099800  3.196968e+01  4.020585e+01  2.678892e+01  # H07 FEME
     93       8    9   0.099800  3.367340e+01  4.027567e+01  2.733759e+01  # H08 FEME
     94       8   10  -0.169400  3.252168e+01  3.883428e+01  2.462055e+01  # F09 FEME
     95       8   11  -0.169400  3.459497e+01  3.892259e+01  2.528767e+01  # F0A FEME
     96       8   12   0.110800  3.314610e+01  3.803639e+01  2.634125e+01  # H0B FEME
     97       9    1   0.086800  3.755742e+01  3.481825e+01  4.203702e+01  # H00 FEME
     98       9    2  -0.053800  3.737825e+01  3.415178e+01  4.118946e+01  # C01 FEME
     99       9    3  -0.354900  3.597632e+01  3.395358e+01  4.106522e+01  # O02 FEME
    100       9    4   0.086800  3.778023e+01  3.462055e+01  4.028580e+01  # H03 FEME
    101       9    5   0.086800  3.788398e+01  3.320017e+01  4.138078e+01  # H04 FEME
    102       9    6  -0.070100  3.566645e+01  3.309133e+01  3.997883e+01  # C05 FEME
    103       9    7   0.246800  3.416972e+01  3.291044e+01  3.988296e+01  # C06 FEME
    104       9    8   0.099800  3.614418e+01  3.211937e+01  4.014437e+01  # H07 FEME
    105       9    9   0.099800  3.604147e+01  3.353312e+01  3.904922e+01  # H08 FEME
    106       9   10  -0.169400  3.369255e+01  3.239145e+01  4.104060e+01  # F09 FEME
    107       9   11  -0.169400  3.356982e+01  3.411349e+01  3.970983e+01  # F0A FEME
    108       9   12   0.110800  3.388720e+01  3.225088e+01  3.905825e+01  # H0B FEME
    109      10    1   0.086800  4.101756e+01  6.137084e+00  3.958571e+00  # H00 FEME
    110      10    2  -0.053800  4.084853e+01  5.628005e+00  3.006248e+00  # C01 FEME
    111      10    3  -0.354900  4.041565e+01  4.301960e+00  3.278906e+00  # O02 FEME
    112      10    4   0.086800  4.008074e+01  6.174609e+00  2.449774e+00  # H03 FEME
    113      10    5   0.086800  4.178821e+01  5.616263e+00  2.445188e+00  # H04 FEME
    114      10    6  -0.070100  4.017662e+01  3.575435e+00  2.081092e+00  # C05 FEME
    115      10    7   0.246800  3.971791e+01  2.175877e+00  2.417142e+00  # C06 FEME
    116      10    8   0.099800  4.110341e+01  3.528451e+00  1.498692e+00  # H07 FEME
    117      10    9   0.099800  3.940065e+01  4.084492e+00  1.499083e+00  # H08 FEME
    118      10   10  -0.169400  4.065976e+01  1.548159e+00  3.162833e+00  # F09 FEME
    119      10   11  -0.169400  3.858860e+01  2.227643e+00  3.164919e+00  # F0A FEME
    120      10   12   0.110800  3.952347e+01  1.580588e+00  1.521155e+00  # H0B FEME
    121      11    1   0.086800  2.941611e+01  2.694811e+01  3.226905e+01  # H00 FEME
    122      11    2  -0.053800  2.913611e+01  2.724502e+01  3.328300e+01  # C01 FEME
    123      11    3  -0.354900  3.030519e+01  2.769121e+01  3.395702e+01  # O02 FEME
    124      11    4   0.086800  2.839930e+01  2.805187e+01  3.321948e+01  # H03 FEME
    125      11    5   0.086800  2.870666e+01  2.637793e+01  3.379452e+01  # H04 FEME
    126      11    6  -0.070100  3.001671e+01  2.809403e+01  3.528903e+01  # C05 FEME
    127      11    7   0.246800  3.128398e+01  2.856117e+01  3.596571e+01  # C06 FEME
    128      11    8   0.099800  2.959869e+01  2.724349e+01  3.583875e+01  # H07 FEME
    129      11    9   0.099800  2.928984e+01  2.891333e+01  3.526881e+01  # H08 FEME
    130      11   10  -0.169400  3.220042e+01  2.756252e+01  3.596899e+01  # F09 FEME
    131      11   11  -0.169400  3.182359e+01  2.959333e+01  3.527242e+01  # F0A FEME
    132      11   12   0.110800  3.110647e+01  2.887989e+01  3.699618e+01  # H0B FEME
    133      12    1   0.086800  5.328370e+00  2.785110e+01  1.974378e+01  # H00 FEME
    134      12    2  -0.053800  6.058951e+00  2.703879e+01  1.977623e+01  # C01 FEME
    135      12    3  -0.354900  5.373746e+00  2.581243e+01  1.956019e+01  # O02 FEME
    136      12    4   0.086800  6.801855e+00  2.720594e+01  1.899004e+01  # H03 FEME
    137      12    5   0.086800  6.539585e+00  2.704075e+01  2.075955e+01  # H04 FEME
    138      12    6  -0.070100  6.264692e+00  2.470562e+01  1.959062e+01  # C05 FEME
    139      12    7   0.246800  5.496207e+00  2.342648e+01  1.935542e+01  # C06 FEME
    140      12    8   0.099800  6.754047e+00  2.466549e+01  2.057003e+01  # H07 FEME
    141      12    9   0.099800  7.019267e+00  2.482817e+01  1.880602e+01  # H08 FEME
    142      12   10  -0.169400  4.540090e+00  2.328131e+01  2.030512e+01  # F09 FEME
    143      12   11  -0.169400  4.862240e+00  2.348261e+01  1.815870e+01  # F0A FEME
    144      12   12   0.110800  6.145826e+00  2.254745e+01  1.937217e+01  # H0B FEME
    145      13    1   0.086800  4.740267e+01  3.679027e+01  2.974575e+01  # H00 FEME
    146      13    2  -0.053800  4.748686e+01  3.727293e+01  3.072279e+01  # C01 FEME
    147      13    3  -0.354900  4.744133e+01  3.868056e+01  3.053141e+01  # O02 FEME
    148      13    4   0.086800  4.665052e+01  3.694424e+01  3.134765e+01  # H03 FEME
    149      13    5   0.086800  4.843847e+01  3.697880e+01  3.117651e+01  # H04 FEME
    150      13    6  -0.070100  4.754764e+01  3.937767e+01  3.176529e+01  # C05 FEME
    151      13    7   0.246800  4.749309e+01  4.086654e+01  3.151553e+01  # C06 FEME
    152      13    8   0.099800  4.849955e+01  3.911977e+01  3.224248e+01  # H07 FEME
    153      13    9   0.099800  4.671718e+01  3.908580e+01  3.241732e+01  # H08 FEME
    154      13   10  -0.169400  4.850012e+01  4.123237e+01  3.068534e+01  # F09 FEME
    155      13   11  -0.169400  4.633103e+01  4.118814e+01  3.089634e+01  # F0A FEME
    156      13   12   0.110800  4.757310e+01  4.144205e+01  3.244147e+01  # H0B FEME
    157      14    1   0.086800  2.318979e+01  3.572035e+01  1.903687e+01  # H00 FEME
    158      14    2  -0.053800  2.274539e+01  3.503263e+01  1.831286e+01  # C01 FEME
    159      14    3  -0.354900  2.276919e+01  3.372385e+01  1.886662e+01  # O02 FEME
    160      14    4   0.086800  2.171528e+01  3.534768e+01  1.811903e+01  # H03 FEME
    161      14    5   0.086800  2.333356e+01  3.506887e+01  1.739055e+01  # H04 FEME
    162      14    6  -0.070100  2.220570e+01  3.277092e+01  1.797547e+01  # C05 FEME
    163      14    7   0.246800  2.224982e+01  3.139774e+01  1.860359e+01  # C06 FEME
    164      14    8   0.099800  2.278109e+01  3.276716e+01  1.704314e+01  # H07 FEME
    165      14    9   0.099800  2.116567e+01  3.304373e+01  1.776596e+01  # H08 FEME
    166      14   10  -0.169400  2.353108e+01  3.106391e+01  1.889359e+01  # F09 FEME
    167      14   11  -0.169400  2.156615e+01  3.140364e+01  1.977396e+01  # F0A FEME
    168      14   12   0.110800  2.182583e+01  3.063210e+01  1.794861e+01  # H0B FEME
    169      15    1   0.086800  4.618070e+01  1.216625e+01  2.203044e+01  # H00 FEME
    170      15    2  -0.053800  4.669013e+01  1.312874e+01  2.212403e+01  # C01 FEME
    171      15    3  -0.354900  4.683564e+01  1.342491e+01  2.350650e+01  # O02 FEME
    172      15    4   0.086800  4.767056e+01  1.305287e+01  2.164345e+01  # H03 FEME
    173      15    5   0.086800  4.608336e+01  1.389422e+01  2.163028e+01  # H04 FEME
    174      15    6  -0.070100  4.749187e+01  1.466957e+01  2.370626e+01  # C05 FEME
    175      15    7   0.246800  4.762649e+01  1.494275e+01  2.518591e+01  # C06 FEME
    176      15    8   0.099800  4.690241e+01  1.546545e+01  2.323781e+01  # H07 FEME
    177      15    9   0.099800  4.848693e+01  1.463017e+01  2.324987e+01  # H08 FEME
    178      15   10  -0.169400  4.640101e+01  1.496389e+01  2.576462e+01  # F09 FEME
    179      15   11  -0.169400  4.832797e+01  1.394504e+01  2.577725e+01  # F0A FEME
    180      15   12   0.110800  4.812645e+01  1.589435e+01  2.538459e+01  # H0B FEME
    181      16    1   0.086800  4.244371e+01  2.911838e+01  4.330681e+01  # H00 FEME
    182      16    2  -0.053800  4.194834e+01  2.853517e+01  4.408728e+01  # C01 FEME
    183      16    3  -0.354900  4.086327e+01  2.929951e+01  4.459574e+01  # O02 FEME
    184      16    4   0.086800  4.158564e+01  2.760079e+01  4.364760e+01  # H03 FEME
    185      16    5   0.086800  4.267359e+01  2.832562e+01  4.487976e+01  # H04 FEME
    186      16    6  -0.070100  4.016979e+01  2.860142e+01  4.562116e+01  # C05 FEME
    187      16    7   0.246800  3.902655e+01  2.944765e+01  4.613009e+01  # C06 FEME
    188      16    8   0.099800  4.086299e+01  2.838812e+01  4.644232e+01  # H07 FEME
    189      16    9   0.099800  3.977732e+01  2.766220e+01  4.521639e+01  # H08 FEME
    190      16   10  -0.169400  3.950021e+01  3.062503e+01  4.660610e+01  # F09 FEME
    191      16   11  -0.169400  3.818152e+01  2.974183e+01  4.511196e+01  # F0A FEME
    192      16   12   0.110800  3.846567e+01  2.894684e+01  4.692355e+01  # H0B FEME
    193      17    1   0.086800  1.091109e+01  3.654185e+01  3.178987e+01  # H00 FEME
    194      17    2  -0.053800  1.179119e+01  3.619618e+01  3.124160e+01  # C01 FEME
    195      17    3  -0.354900  1.221138e+01  3.496040e+01  3.180410e+01  # O02 FEME
    196      17    4   0.086800  1.151790e+01  3.606492e+01  3.018992e+01  # H03 FEME
    197      17    5   0.086800  1.258015e+01  3.694864e+01  3.133792e+01  # H04 FEME
    198      17    6  -0.070100  1.335847e+01  3.444874e+01  3.113918e+01  # C05 FEME
    199      17    7   0.246800  1.376830e+01  3.313713e+01  3.176673e+01  # C06 FEME
    200      17    8   0.099800  1.417748e+01  3.517087e+01  3.122909e+01  # H07 FEME
    201      17    9   0.099800  1.312147e+01  3.428960e+01  3.008159e+01  # H08 FEME
    202      17   10  -0.169400  1.403508e+01  3.331887e+01  3.308315e+01  # F09 FEME
    203      17   11  -0.169400  1.274763e+01  3.224882e+01  3.168713e+01  # F0A FEME
    204      17   12   0.110800  1.465057e+01  3.270835e+01  3.128433e+01  # H0B FEME
    205      18    1   0.086800  2.374239e+01  2.908967e+01  2.727947e+01  # H00 FEME
    206      18    2  -0.053800  2.433454e+01  2.979041e+01  2.668536e+01  # C01 FEME
    207      18    3  -0.354900  2.436935e+01  2.932114e+01  2.534421e+01  # O02 FEME
    208      18    4   0.086800  2.386112e+01  3.077604e+01  2.673397e+01  # H03 FEME
    209      18    5   0.086800  2.534563e+01  2.983376e+01  2.710219e+01  # H04 FEME
    210      18    6  -0.070100  2.512743e+01  3.018600e+01  2.450930e+01  # C05 FEME
    211      18    7   0.246800  2.513628e+01  2.965136e+01  2.309643e+01  # C06 FEME
    212      18    8   0.099800  2.615412e+01  3.024128e+01  2.488768e+01  # H07 FEME
    213      18    9   0.099800  2.467631e+01  3.118419e+01  2.451951e+01  # H08 FEME
    214      18   10  -0.169400  2.566602e+01  2.840387e+01  2.307843e+01  # F09 FEME
    215      18   11  -0.169400  2.386638e+01  2.955047e+01  2.263343e+01  # F0A FEME
    216      18   12   0.110800  2.571150e+01  3.028824e+01  2.241933e+01  # H0B FEME
    217      19    1   0.086800  2.048698e+01  2.866578e+01  2.181774e+00  # H00 FEME
    218      19    2  -0.053800  1.947038e+01  2.829564e+01  2.337217e+00  # C01 FEME
    219      19    3  -0.354900  1.951543e+01  2.687622e+01  2.394987e+00  # O02 FEME
    220      19    4   0.086800  1.908989e+01  2.870525e+01  3.278173e+00  # H03 FEME
    221      19    5   0.086800  1.884716e+01  2.862516e+01  1.500000e+00  # H04 FEME
    222      19    6  -0.070100  1.822222e+01  2.632177e+01  2.594801e+00  # C05 FEME
    223      19    7   0.246800  1.831713e+01  2.481516e+01  2.651569e+00  # C06 FEME
    224      19    8   0.099800  1.757233e+01  2.661795e+01  1.763978e+00  # H07 FEME
    225      19    9   0.099800  1.781016e+01  2.669779e+01  3.537570e+00  # H08 FEME
    226      19   10  -0.169400  1.885381e+01  2.434289e+01  1.500000e+00  # F09 FEME
    227      19   11  -0.169400  1.914526e+01  2.444271e+01  3.657893e+00  # F0A FEME
    228      19   12   0.110800  1.734102e+01  2.434704e+01  2.803381e+00  # H0B FEME
    229      20    1   0.086800  4.836274e+01  5.550970e+00  3.023029e+01  # H00 FEME
    230      20    2  -0.053800  4.789845e+01  6.533537e+00  3.011347e+01  # C01 FEME
    231      20    3  -0.354900  4.785701e+01  6.846434e+00  2.872765e+01  # O02 FEME
    232      20    4   0.086800  4.688597e+01  6.492522e+00  3.052717e+01  # H03 FEME
    233      20    5   0.086800  4.850023e+01  7.270446e+00  3.065453e+01  # H04 FEME
    234      20    6  -0.070100  4.726438e+01  8.117608e+00  2.849820e+01  # C05 FEME
    235      20    7   0.246800  4.723938e+01  8.407892e+00  2.701590e+01  # C06 FEME
    236      20    8   0.099800  4.785178e+01  8.885778e+00  2.901320e+01  # H07 FEME
    237      20    9   0.099800  4.624034e+01  8.113800e+00  2.888719e+01  # H08 FEME
    238      20   10  -0.169400  4.850060e+01  8.385354e+00  2.651994e+01  # F09 FEME
    239      20   11  -0.169400  4.654065e+01  7.443471e+00  2.636869e+01  # F0A FEME
    240      20   12   0.110800  4.679111e+01  9.380060e+00  2.679474e+01  # H0B FEME
    241      21    1   0.086800  4.800724e+01  1.406331e+01  1.487610e+01  # H00 FEME
    242      21    2  -0.053800  4.773770e+01  1.464832e+01  1.399306e+01  # C01 FEME
    243      21    3  -0.354900  4.768451e+01  1.601927e+01  1.436427e+01  # O02 FEME
    244      21    4   0.086800  4.849936e+01  1.448937e+01  1.322328e+01  # H03 FEME
    245      21    5   0.086800  4.676005e+01  1.431026e+01  1.363553e+01  # H04 FEME
    246      21    6  -0.070100  4.733628e+01  1.684451e+01  1.326089e+01  # C05 FEME
    247      21    7   0.246800  4.729326e+01  1.828956e+01  1.369914e+01  # C06 FEME
    248      21    8   0.099800  4.635164e+01  1.654500e+01  1.288523e+01  # H07 FEME
    249      21    9   0.099800  4.808485e+01  1.672453e+01  1.247017e+01  # H08 FEME
    250      21   10  -0.169400  4.639025e+01  1.844203e+01  1.469838e+01  # F09 FEME
    251      21   11  -0.169400  4.850005e+01  1.865745e+01  1.419463e+01  # F0A FEME
    252      21   12   0.110800  4.702702e+01  1.896051e+01  1.287821e+01  # H0B FEME
    253      22    1   0.086800  3.168469e+01  3.643381e+01  6.533746e+00  # H00 FEME
    254      22    2  -0.053800  3.126584e+01  3.566304e+01  5.881732e+00  # C01 FEME
    255      22    3  -0.354900  3.166210e+01  3.594379e+01  4.545963e+00  # O02 FEME
    256      22    4   0.086800  3.165241e+01  3.468953e+01  6.199191e+00  # H03 FEME
    257      22    5   0.086800  3.017518e+01  3.568585e+01  5.970363e+00  # H04 FEME
    258      22    6  -0.070100  3.115000e+01  3.497875e+01  3.637013e+00  # C05 FEME
    259      22    7   0.246800  3.159594e+01  3.531419e+01  2.233189e+00  # C06 FEME
    260      22    8   0.099800  3.005551e+01  3.498459e+01  3.686139e+00  # H07 FEME
    261      22    9   0.099800  3.152633e+01  3.398771e+01  3.913042e+00  # H08 FEME
    262      22   10  -0.169400  3.115960e+01  3.655174e+01  1.893721e+00  # F09 FEME
    263      22   11  -0.169400  3.294979e+01  3.533986e+01  2.172986e+00  # F0A FEME
    264      22   12   0.110800  3.122152e+01  3.459511e+01  1.499900e+00  # H0B FEME
    265      23    1   0.086800  2.829066e+01  3.854966e+01  3.611022e+01  # H00 FEME
    266      23    2  -0.053800  2.753753e+01  3.933787e+01  3.603163e+01  # C01 FEME
    267      23    3  -0.354900  2.737675e+01  3.966717e+01  3.465837e+01  # O02 FEME
    268      23    4   0.086800  2.659688e+01  3.896460e+01  3.644853e+01  # H03 FEME
    269      23    5   0.086800  2.788395e+01  4.020913e+01  3.659626e+01  # H04 FEME
    270      23    6  -0.070100  2.640875e+01  4.069202e+01  3.447839e+01  # C05 FEME
    271      23    7   0.246800  2.626916e+01  4.100829e+01  3.300782e+01  # C06 FEME
    272      23    8   0.099800  2.673121e+01  4.158922e+01  3.501819e+01  # H07 FEME
    273      23    9   0.099800  2.544497e+01  4.035118e+01  3.487201e+01  # H08 FEME
    274      23   10  -0.169400  2.746450e+01  4.140282e+01  3.250517e+01  # F09 FEME
    275      23   11  -0.169400  2.590104e+01  3.989416e+01  3.232928e+01  # F0A FEME
    276      23   12   0.110800  2.553281e+01  4.179515e+01  3.282449e+01  # H0B FEME
    277      24    1   0.086800  1.968251e+01  4.710709e+01  2.402752e+01  # H00 FEME
    278      24    2  -0.053800  1.916243e+01  4.614587e+01  2.401265e+01  # C01 FEME
    279      24    3  -0.354900  1.894718e+01  4.577502e+01  2.265757e+01  # O02 FEME
    280      24    4   0.086800  1.978739e+01  4.540307e+01  2.451825e+01  # H03 FEME
    281      24    5   0.086800  1.820734e+01  4.625770e+01  2.453534e+01  # H04 FEME
    282      24    6  -0.070100  1.827037e+01  4.452919e+01  2.255973e+01  # C05 FEME
    283      24    7   0.246800  1.806465e+01  4.417403e+01  2.110589e+01  # C06 FEME
    284      24    8   0.099800  1.729872e+01  4.460825e+01  2.305971e+01  # H07 FEME
    285      24    9   0.099800  1.887228e+01  4.375256e+01  2.304403e+01  # H08 FEME
    286      24   10  -0.169400  1.734551e+01  4.514460e+01  2.049107e+01  # F09 FEME
    287      24   11  -0.169400  1.926175e+01  4.410579e+01  2.047384e+01  # F0A FEME
    288      24   12   0.110800  1.754456e+01  4.322014e+01  2.098520e+01  # H0B FEME
    289      25    1   0.086800  1.525434e+01  1.405268e+01  5.693372e+00  # H00 FEME
    290      25    2  -0.053800  1.448418e+01  1.429868e+01  6.428886e+00  # C01 FEME
    291      25    3  -0.354900  1.449292e+01  1.329709e+01  7.437288e+00  # O02 FEME
    292      25    4   0.086800  1.471356e+01  1.527816e+01  6.860105e+00  # H03 FEME
    293      25    5   0.086800  1.351393e+01  1.432422e+01  5.923023e+00  # H04 FEME
    294      25    6  -0.070100  1.351078e+01  1.355140e+01  8.432509e+00  # C05 FEME
    295      25    7   0.246800  1.355649e+01  1.246612e+01  9.482352e+00  # C06 FEME
    296      25    8   0.099800  1.252062e+01  1.356779e+01  7.963834e+00  # H07 FEME
    297      25    9   0.099800  1.371361e+01  1.452103e+01  8.900145e+00  # H08 FEME
    298      25   10  -0.169400  1.333577e+01  1.125858e+01  8.907646e+00  # F09 FEME
    299      25   11  -0.169400  1.478912e+01  1.241940e+01  1.004417e+01  # F0A FEME
    300      25   12   0.110800  1.281360e+01  1.262314e+01  1.026876e+01  # H0B FEME
    301      26    1   0.086800  3.584908e+00  2.765737e+01  4.009251e+01  # H00 FEME
    302      26    2  -0.053800  2.719681e+00  2.754869e+01  4.075147e+01  # C01 FEME
    303      26    3  -0.354900  3.190228e+00  2.732984e+01  4.207465e+01  # O02 FEME
    304      26    4   0.086800  2.126555e+00  2.846728e+01  4.070305e+01  # H03 FEME
    305      26    5   0.086800  2.126059e+00  2.669488e+01  4.041009e+01  # H04 FEME
    306      26    6  -0.070100  2.114940e+00  2.717695e+01  4.299123e+01  # C05 FEME
    307      26    7   0.246800  2.659425e+00  2.694883e+01  4.438177e+01  # C06 FEME