LAMMPS data file Created by LigParGen - (Written by Leela S. Dodda)

      10 atoms
      10 bonds
      17 angles
      19 dihedrals
       5 impropers
 
      10 atom types
      10 bond types
      17 angle types
      19 dihedral types
       5 improper types
 
   -1.917170    48.082830 xlo xhi
   -0.533020    49.466980 ylo yhi
   -2.257960    47.742040 zlo zhi

Masses

       1      1.008  
       2     12.011  
       3      1.008  
       4     15.999  
       5     12.011  
       6     12.011  
       7      1.008  
       8      1.008  
       9     15.999  
      10     15.999  

Pair Coeffs 

       1      0.030  2.5000000 
       2      0.066  3.5000000 
       3      0.030  2.5000000 
       4      0.140  2.9000000 
       5      0.066  3.5000000 
       6      0.070  3.5500000 
       7      0.030  2.5000000 
       8      0.030  2.5000000 
       9      0.140  2.9000000 
      10      0.210  2.9600000 

Bond Coeffs 

       1   340.0000     1.0900 
       2   340.0000     1.0900 
       3   320.0000     1.4100 
       4   268.0000     1.5290 
       5   214.0000     1.3270 
       6   340.0000     1.0900 
       7   340.0000     1.0900 
       8   320.0000     1.4100 
       9   570.0000     1.2290 
      10   214.0000     1.3270 

Angle Coeffs 

       1     33.000    107.800
       2     35.000    109.500
       3     37.500    110.700
       4     83.000    116.900
       5     37.500    110.700
       6     37.500    110.700
       7     50.000    109.500
       8     83.000    123.400
       9     50.000    109.500
      10     35.000    109.500
      11     83.000    123.400
      12     35.000    109.500
      13     37.500    110.700
      14     35.000    109.500
      15     83.000    116.900
      16     69.900    118.180
      17     33.000    107.800

Dihedral Coeffs  

       1      0.000      0.000      0.198      0.000 
       2      0.000      0.000      0.300      0.000 
       3      0.000      0.000      0.468      0.000 
       4      4.669      5.124      0.000      0.000 
       5      0.000      5.124      0.000      0.000 
       6      0.000      0.000      0.198      0.000 
       7      0.000      5.124      0.000      0.000 
       8     -1.220     -0.126      0.422      0.000 
       9      4.669      5.124      0.000      0.000 
      10      0.000      0.000      0.468      0.000 
      11      0.000      0.000      0.198      0.000 
      12     -0.550      0.000      0.000      0.000 
      13      0.000      0.000      0.468      0.000 
      14      0.000      0.000      0.300      0.000 
      15      0.000      0.000      0.300      0.000 
      16      0.000      0.000      0.300      0.000 
      17     -1.220     -0.126      0.422      0.000 
      18      0.000      0.000      0.468      0.000 
      19      0.000      0.000      0.198      0.000 

Improper Coeffs 

       1      0.000      -1       2 
       2      0.000      -1       2 
       3      0.000      -1       2 
       4      0.000      -1       2 
       5     10.500      -1       2 

Atoms 

     1      1      1 0.13380000    1.000  1.00000  0.00000
     2      1      2 -0.04530000   -0.093  1.00000  0.00000
     3      1      3 0.13380000   -0.459  1.00000  1.02951
     4      1      4 -0.29580000   -0.581 -0.05035 -0.64327
     5      1      5 -0.04350000   -0.676  2.15587 -0.83218
     6      1      6 0.58400000   -1.321  0.27391 -1.56198
     7      1      7 0.13370000    0.098  2.73326 -1.34422
     8      1      8 0.13370000   -1.298  2.82454 -0.23189
     9      1      9 -0.29820000   -1.406  1.48844 -1.71389
    10      1     10 -0.43650000   -1.917 -0.53302 -2.25796

Bonds 

     1      1      2      1
     2      2      3      2
     3      3      4      2
     4      4      5      2
     5      5      6      4
     6      6      7      5
     7      7      8      5
     8      8      9      5
     9      9     10      6
    10     10      9      6

Angles 

     1      1      1      2      3
     2      2      1      2      4
     3      3      1      2      5
     4      4      2      4      6
     5      5      2      5      7
     6      6      2      5      8
     7      7      2      5      9
     8      8      4      6     10
     9      9      4      2      5
    10     10      3      2      4
    11     11      9      6     10
    12     12      7      5      9
    13     13      3      2      5
    14     14      8      5      9
    15     15      5      9      6
    16     16      4      6      9
    17     17      7      5      8

Dihedrals

     1      1      6      4      2      1 
     2      2      7      5      2      1 
     3      3      9      5      2      3 
     4      4      5      9      6      4 
     5      5     10      6      4      2 
     6      6      7      5      9      6 
     7      7     10      6      9      5 
     8      8      6      4      2      5 
     9      9      9      6      4      2 
    10     10      7      5      2      4 
    11     11      8      5      9      6 
    12     12      9      5      2      4 
    13     13      8      5      2      4 
    14     14      8      5      2      1 
    15     15      8      5      2      3 
    16     16      7      5      2      3 
    17     17      6      9      5      2 
    18     18      9      5      2      1 
    19     19      6      4      2      3 

Impropers

     1      1      2      1      3      4 
     2      2      2      1      3      5 
     3      3      5      2      7      8 
     4      4      5      9      2      7 
     5      5      6      9     10      4 
