LAMMPS data file Created by LigParGen - (Written by Leela S. Dodda)

      12 atoms
      11 bonds
      19 angles
      15 dihedrals
       6 impropers
 
      12 atom types
      11 bond types
      19 angle types
      15 dihedral types
       6 improper types
 
   -3.477290    46.522710 xlo xhi
   -0.088200    49.911800 ylo yhi
   -0.518970    49.481030 zlo zhi

Masses

       1      1.008  
       2     12.011  
       3     15.999  
       4      1.008  
       5      1.008  
       6     12.011  
       7     12.011  
       8      1.008  
       9      1.008  
      10     18.998  
      11     18.998  
      12      1.008  

Pair Coeffs 

       1      0.030  2.5000000 
       2      0.066  3.5000000 
       3      0.140  2.9000000 
       4      0.030  2.5000000 
       5      0.030  2.5000000 
       6      0.066  3.5000000 
       7      0.066  3.5000000 
       8      0.030  2.5000000 
       9      0.030  2.5000000 
      10      0.060  2.9000000 
      11      0.060  2.9000000 
      12      0.030  2.5000000 

Bond Coeffs 

       1   340.0000     1.0900 
       2   320.0000     1.4100 
       3   340.0000     1.0900 
       4   340.0000     1.0900 
       5   320.0000     1.4100 
       6   268.0000     1.5290 
       7   340.0000     1.0900 
       8   340.0000     1.0900 
       9   367.0000     1.3600 
      10   367.0000     1.3600 
      11   340.0000     1.0900 

Angle Coeffs 

       1     35.000    109.500
       2     33.000    107.800
       3     33.000    107.800
       4     60.000    109.500
       5     50.000    109.500
       6     35.000    109.500
       7     35.000    109.500
       8     50.000    109.500
       9     50.000    109.500
      10     37.500    110.700
      11     35.000    109.500
      12     35.000    109.500
      13     33.000    107.800
      14     77.000    109.100
      15     40.000    107.000
      16     37.500    110.700
      17     37.500    110.700
      18     33.000    107.800
      19     40.000    107.000

Dihedral Coeffs  

       1      0.000      0.000      0.760      0.000 
       2      0.650     -0.250      0.670      0.000 
       3      0.000      0.000      0.540      0.000 
       4      0.000      0.000      0.760      0.000 
       5      0.000      0.000      0.468      0.000 
       6      0.000      0.000      0.360      0.000 
       7      0.000      0.000      0.540      0.000 
       8      0.000      0.000      0.760      0.000 
       9      0.000      0.000      0.300      0.000 
      10      0.000      0.000      0.760      0.000 
      11      0.000      0.000      0.360      0.000 
      12      0.000      0.000      0.360      0.000 
      13      0.000      0.000      0.360      0.000 
      14      0.000      0.000      0.300      0.000 
      15      0.000      0.000      0.760      0.000 

Improper Coeffs 

       1      0.000      -1       2 
       2      0.000      -1       2 
       3      0.000      -1       2 
       4      0.000      -1       2 
       5      0.000      -1       2 
       6      0.000      -1       2 

Atoms 

     1      1      1 0.08680000    1.000  1.00000  0.00000
     2      1      2 -0.05380000   -0.093  1.00000  0.00000
     3      1      3 -0.35490000   -0.540  1.00000  1.34919
     4      1      4 0.08680000   -0.442  1.89823 -0.51897
     5      1      5 0.08680000   -0.442  0.10178 -0.51896
     6      1      6 -0.07010000   -1.959  0.99833  1.42775
     7      1      7 0.24680000   -2.389  1.00019  2.87592
     8      1      8 0.09980000   -2.345  0.10135  0.93099
     9      1      9 0.09980000   -2.349  1.89259  0.92956
    10      1     10 -0.16940000   -1.886 -0.08820  3.50803
    11      1     11 -0.16940000   -1.888  2.09157  3.50448
    12      1     12 0.11090000   -3.477  0.99770  2.98185

Bonds 

     1      1      2      1
     2      2      3      2
     3      3      4      2
     4      4      5      2
     5      5      6      3
     6      6      7      6
     7      7      8      6
     8      8      9      6
     9      9     10      7
    10     10     11      7
    11     11     12      7

Angles 

     1      1      1      2      3
     2      2      1      2      4
     3      3      1      2      5
     4      4      2      3      6
     5      5      3      6      7
     6      6      3      6      8
     7      7      3      6      9
     8      8      6      7     10
     9      9      6      7     11
    10     10      6      7     12
    11     11      3      2      4
    12     12      3      2      5
    13     13      4      2      5
    14     14     10      7     11
    15     15     10      7     12
    16     16      7      6      9
    17     17      7      6      8
    18     18      8      6      9
    19     19     11      7     12

Dihedrals

     1      1      6      3      2      1 
     2      2      7      6      3      2 
     3      3     10      7      6      3 
     4      4      6      3      2      4 
     5      5     12      7      6      3 
     6      6     10      7      6      8 
     7      7     11      7      6      3 
     8      8      6      3      2      5 
     9      9     12      7      6      9 
    10     10      9      6      3      2 
    11     11     10      7      6      9 
    12     12     11      7      6      8 
    13     13     11      7      6      9 
    14     14     12      7      6      8 
    15     15      8      6      3      2 

Impropers

     1      1      2      1      3      4 
     2      2      2      1      3      5 
     3      3      6      3      7      8 
     4      4      6      9      3      7 
     5      5      7     10     11      6 
     6      6      7     10     12      6 
