created by fftool

12132 atoms
11440 bonds
21029 angles
23214 dihedrals
26 atom types
23 bond types
42 angle types
44 dihedral types
0.000000 50.000000 xlo xhi
0.000000 50.000000 ylo yhi
0.000000 50.000000 zlo zhi

Masses

   1   15.999  # O00
   2   12.011  # C01
   3   12.011  # C02
   4   12.011  # C03
   5   12.011  # C04
   6   12.011  # C05
   7   12.011  # C06
   8    1.008  # H07
   9    1.008  # H08
  10    1.008  # H09
  11    1.008  # H0A
  12    1.008  # H0B
  13    1.008  # H0C
  14    1.008  # H0D
  15    1.008  # H0E
  16    1.008  # H0F
  17    1.008  # H0G
  18    1.008  # H0H
  19    1.008  # H0I
  20    1.008  # H0J
  21    1.008  # H0K
  22    6.941  # Li
  23   18.998  # FSI
  24   32.066  # SBT
  25   14.000  # NBT
  26   15.999  # OBT

Bond Coeffs

   1   320.004780     1.410000  # C01-O00
   2   320.004780     1.410000  # C02-O00
   3   267.997132     1.529000  # C03-C01
   4   339.997610     1.090000  # H07-C01
   5   339.997610     1.090000  # H08-C01
   6   267.997132     1.529000  # C04-C02
   7   339.997610     1.090000  # H09-C02
   8   339.997610     1.090000  # H0A-C02
   9   267.997132     1.529000  # C05-C03
  10   339.997610     1.090000  # H0B-C03
  11   339.997610     1.090000  # H0C-C03
  12   267.997132     1.529000  # C06-C04
  13   339.997610     1.090000  # H0D-C04
  14   339.997610     1.090000  # H0E-C04
  15   339.997610     1.090000  # H0F-C05
  16   339.997610     1.090000  # H0G-C05
  17   339.997610     1.090000  # H0H-C05
  18   339.997610     1.090000  # H0I-C06
  19   339.997610     1.090000  # H0J-C06
  20   339.997610     1.090000  # H0K-C06
  21   224.545889     1.575000  # FB-SB
  22   374.880497     1.570000  # NB-SB
  23   637.069790     1.437000  # SB-OB

Angle Coeffs

   1    60.002390   109.500000  # C01-O00-C02
   2    50.000000   109.500000  # O00-C01-C03
   3    35.002390   109.500000  # O00-C01-H07
   4    35.002390   109.500000  # O00-C01-H08
   5    37.500000   110.700000  # C03-C01-H07
   6    37.500000   110.700000  # C03-C01-H08
   7    32.994742   107.800000  # H07-C01-H08
   8    50.000000   109.500000  # O00-C02-C04
   9    35.002390   109.500000  # O00-C02-H09
  10    35.002390   109.500000  # O00-C02-H0A
  11    37.500000   110.700000  # C04-C02-H09
  12    37.500000   110.700000  # C04-C02-H0A
  13    32.994742   107.800000  # H09-C02-H0A
  14    58.353250   112.700000  # C01-C03-C05
  15    37.500000   110.700000  # C01-C03-H0B
  16    37.500000   110.700000  # C01-C03-H0C
  17    37.500000   110.700000  # C05-C03-H0B
  18    37.500000   110.700000  # C05-C03-H0C
  19    32.994742   107.800000  # H0B-C03-H0C
  20    58.353250   112.700000  # C02-C04-C06
  21    37.500000   110.700000  # C02-C04-H0D
  22    37.500000   110.700000  # C02-C04-H0E
  23    37.500000   110.700000  # C06-C04-H0D
  24    37.500000   110.700000  # C06-C04-H0E
  25    32.994742   107.800000  # H0D-C04-H0E
  26    37.500000   110.700000  # C03-C05-H0F
  27    37.500000   110.700000  # C03-C05-H0G
  28    37.500000   110.700000  # C03-C05-H0H
  29    32.994742   107.800000  # H0F-C05-H0G
  30    32.994742   107.800000  # H0F-C05-H0H
  31    32.994742   107.800000  # H0G-C05-H0H
  32    37.500000   110.700000  # C04-C06-H0I
  33    37.500000   110.700000  # C04-C06-H0J
  34    37.500000   110.700000  # C04-C06-H0K
  35    32.994742   107.800000  # H0I-C06-H0J
  36    32.994742   107.800000  # H0I-C06-H0K
  37    32.994742   107.800000  # H0J-C06-H0K
  38   107.791587   103.000000  # FB-SB-NB
  39   128.704589   104.100000  # FB-SB-OB
  40    94.287763   113.600000  # NB-SB-OB
  41   115.798279   118.500000  # OB-SB-OB
  42    80.186424   125.600000  # SB-NB-SB

Dihedral Coeffs

   1     0.679971     0.250000     1.340105     0.000000  # C03-C01-O00-C02
   2     1.140057     0.000000     1.520076     0.000000  # H07-C01-O00-C02
   3     1.140057     0.000000     1.520076     0.000000  # H08-C01-O00-C02
   4     0.679971     0.250000     1.340105     0.000000  # C04-C02-O00-C01
   5     1.140057     0.000000     1.520076     0.000000  # H09-C02-O00-C01
   6     1.140057     0.000000     1.520076     0.000000  # H0A-C02-O00-C01
   7     0.139101     0.500000     1.326004     0.000000  # C05-C03-C01-O00
   8     0.701960     0.000000     0.935946     0.000000  # H0B-C03-C01-O00
   9     0.701960     0.000000     0.935946     0.000000  # H0C-C03-C01-O00
  10     0.450048     0.000000     0.599904     0.000000  # H07-C01-C03-C05
  11     0.450048     0.000000     0.599904     0.000000  # H0B-C03-C01-H07
  12     0.450048     0.000000     0.599904     0.000000  # H0C-C03-C01-H07
  13     0.450048     0.000000     0.599904     0.000000  # H08-C01-C03-C05
  14     0.450048     0.000000     0.599904     0.000000  # H0B-C03-C01-H08
  15     0.450048     0.000000     0.599904     0.000000  # H0C-C03-C01-H08
  16     0.139101     0.500000     1.326004     0.000000  # C06-C04-C02-O00
  17     0.701960     0.000000     0.935946     0.000000  # H0D-C04-C02-O00
  18     0.701960     0.000000     0.935946     0.000000  # H0E-C04-C02-O00
  19     0.450048     0.000000     0.599904     0.000000  # H09-C02-C04-C06
  20     0.450048     0.000000     0.599904     0.000000  # H0D-C04-C02-H09
  21     0.450048     0.000000     0.599904     0.000000  # H0E-C04-C02-H09
  22     0.450048     0.000000     0.599904     0.000000  # H0A-C02-C04-C06
  23     0.450048     0.000000     0.599904     0.000000  # H0D-C04-C02-H0A
  24     0.450048     0.000000     0.599904     0.000000  # H0E-C04-C02-H0A
  25     0.450048     0.000000     0.599904     0.000000  # H0F-C05-C03-C01
  26     0.450048     0.000000     0.599904     0.000000  # H0G-C05-C03-C01
  27     0.450048     0.000000     0.599904     0.000000  # H0H-C05-C03-C01
  28     0.450048     0.000000     0.599904     0.000000  # H0F-C05-C03-H0B
  29     0.450048     0.000000     0.599904     0.000000  # H0G-C05-C03-H0B
  30     0.450048     0.000000     0.599904     0.000000  # H0H-C05-C03-H0B
  31     0.450048     0.000000     0.599904     0.000000  # H0F-C05-C03-H0C
  32     0.450048     0.000000     0.599904     0.000000  # H0G-C05-C03-H0C
  33     0.450048     0.000000     0.599904     0.000000  # H0H-C05-C03-H0C
  34     0.450048     0.000000     0.599904     0.000000  # H0I-C06-C04-C02
  35     0.450048     0.000000     0.599904     0.000000  # H0J-C06-C04-C02
  36     0.450048     0.000000     0.599904     0.000000  # H0K-C06-C04-C02
  37     0.450048     0.000000     0.599904     0.000000  # H0I-C06-C04-H0D
  38     0.450048     0.000000     0.599904     0.000000  # H0J-C06-C04-H0D
  39     0.450048     0.000000     0.599904     0.000000  # H0K-C06-C04-H0D
  40     0.450048     0.000000     0.599904     0.000000  # H0I-C06-C04-H0E
  41     0.450048     0.000000     0.599904     0.000000  # H0J-C06-C04-H0E
  42     0.450048     0.000000     0.599904     0.000000  # H0K-C06-C04-H0E
  43     2.735421    -3.629541    -0.767686     0.000000  # FB-SB-NB-SB
  44     0.000000     0.000000    -0.003585     0.000000  # OB-SB-NB-SB

Atoms

      1       1    1  -0.396200  8.142785e+00  4.615041e+01  3.380592e+01  # O00 DPE
      2       1    2   0.015800  7.171670e+00  4.555935e+01  3.468977e+01  # C01 DPE
      3       1    3   0.015800  9.092141e+00  4.701201e+01  3.446068e+01  # C02 DPE
      4       1    4  -0.182700  6.184205e+00  4.465059e+01  3.392902e+01  # C03 DPE
      5       1    5  -0.182700  1.010504e+01  4.761191e+01  3.346247e+01  # C04 DPE
      6       1    6  -0.236100  5.139903e+00  4.401148e+01  3.487302e+01  # C05 DPE
      7       1    7  -0.236100  1.112561e+01  4.853918e+01  3.415955e+01  # C06 DPE
      8       1    8   0.072500  6.602112e+00  4.634798e+01  3.519091e+01  # H07 DPE
      9       1    9   0.072500  7.682281e+00  4.495856e+01  3.544859e+01  # H08 DPE
     10       1   10   0.072500  9.644361e+00  4.644468e+01  3.521590e+01  # H09 DPE
     11       1   11   0.072500  8.564249e+00  4.783337e+01  3.495455e+01  # H0A DPE
     12       1   12   0.102000  6.739295e+00  4.385777e+01  3.342058e+01  # H0B DPE
     13       1   13   0.102000  5.665288e+00  4.523755e+01  3.316649e+01  # H0C DPE
     14       1   14   0.102000  9.567230e+00  4.818057e+01  3.269953e+01  # H0D DPE
     15       1   15   0.102000  1.064109e+01  4.680214e+01  3.296088e+01  # H0E DPE
     16       1   16   0.084100  4.455735e+00  4.337678e+01  3.430945e+01  # H0F DPE
     17       1   17   0.084100  5.632223e+00  4.339800e+01  3.563096e+01  # H0G DPE
     18       1   18   0.084100  4.555220e+00  4.478390e+01  3.537766e+01  # H0H DPE
     19       1   19   0.084100  1.182834e+01  4.894706e+01  3.343182e+01  # H0I DPE
     20       1   20   0.084100  1.061596e+01  4.937223e+01  3.464870e+01  # H0J DPE
     21       1   21   0.083700  1.169289e+01  4.798826e+01  3.491298e+01  # H0K DPE
     22       2    1  -0.396200  1.119019e+01  3.337801e+01  3.211765e+01  # O00 DPE
     23       2    2   0.015800  9.918682e+00  3.357368e+01  3.147067e+01  # C01 DPE
     24       2    3   0.015800  1.110630e+01  3.318476e+01  3.354171e+01  # C02 DPE
     25       2    4  -0.182700  1.007606e+01  3.377636e+01  2.994954e+01  # C03 DPE
     26       2    5  -0.182700  1.249872e+01  3.297920e+01  3.417509e+01  # C04 DPE
     27       2    6  -0.236100  8.713897e+00  3.398524e+01  2.924880e+01  # C05 DPE
     28       2    7  -0.236100  1.241494e+01  3.277301e+01  3.570407e+01  # C06 DPE
     29       2    8   0.072500  9.424749e+00  3.445593e+01  3.188916e+01  # H07 DPE
     30       2    9   0.072500  9.281183e+00  3.270061e+01  3.164042e+01  # H08 DPE
     31       2   10   0.072500  1.049369e+01  3.230442e+01  3.375827e+01  # H09 DPE
     32       2   11   0.072500  1.064048e+01  3.405968e+01  3.400510e+01  # H0A DPE
     33       2   12   0.102000  1.057069e+01  3.290274e+01  2.951672e+01  # H0B DPE
     34       2   13   0.102000  1.071115e+01  3.464663e+01  2.976364e+01  # H0C DPE
     35       2   14   0.102000  1.312372e+01  3.385093e+01  3.396495e+01  # H0D DPE
     36       2   15   0.102000  1.297686e+01  3.210714e+01  3.372172e+01  # H0E DPE
     37       2   16   0.084100  8.855176e+00  3.412689e+01  2.817711e+01  # H0F DPE
     38       2   17   0.084100  8.068126e+00  3.311703e+01  2.939845e+01  # H0G DPE
     39       2   18   0.084100  8.208075e+00  3.486712e+01  2.964826e+01  # H0H DPE
     40       2   19   0.084100  1.341136e+01  3.262927e+01  3.612393e+01  # H0I DPE
     41       2   20   0.084100  1.196229e+01  3.364314e+01  3.618465e+01  # H0J DPE
     42       2   21   0.083700  1.181269e+01  3.189301e+01  3.594045e+01  # H0K DPE
     43       3    1  -0.396200  4.751071e+01  2.277540e+01  2.408537e+01  # O00 DPE
     44       3    2   0.015800  4.823078e+01  2.326677e+01  2.293922e+01  # C01 DPE
     45       3    3   0.015800  4.834385e+01  2.218100e+01  2.509774e+01  # C02 DPE
     46       3    4  -0.182700  4.728382e+01  2.388875e+01  2.189229e+01  # C03 DPE
     47       3    5  -0.182700  4.751527e+01  2.167648e+01  2.629823e+01  # C04 DPE
     48       3    6  -0.236100  4.805133e+01  2.441989e+01  2.065982e+01  # C05 DPE
     49       3    7  -0.236100  4.840432e+01  2.103576e+01  2.738743e+01  # C06 DPE
     50       3    8   0.072500  4.877739e+01  2.244437e+01  2.246770e+01  # H07 DPE
     51       3    9   0.072500  4.894850e+01  2.403008e+01  2.325502e+01  # H08 DPE
     52       3   10   0.072500  4.906562e+01  2.291899e+01  2.546051e+01  # H09 DPE
     53       3   11   0.072500  4.889080e+01  2.133360e+01  2.467351e+01  # H0A DPE
     54       3   12   0.102000  4.672827e+01  2.471178e+01  2.234967e+01  # H0B DPE
     55       3   13   0.102000  4.656002e+01  2.313701e+01  2.156632e+01  # H0C DPE
     56       3   14   0.102000  4.678723e+01  2.093905e+01  2.595060e+01  # H0D DPE
     57       3   15   0.102000  4.696281e+01  2.251325e+01  2.673328e+01  # H0E DPE
     58       3   16   0.084100  4.735852e+01  2.485186e+01  1.993735e+01  # H0F DPE
     59       3   17   0.084100  4.876507e+01  2.519210e+01  2.095558e+01  # H0G DPE
     60       3   18   0.084100  4.859813e+01  2.361088e+01  2.017029e+01  # H0H DPE
     61       3   19   0.084100  4.779363e+01  2.069008e+01  2.822251e+01  # H0I DPE
     62       3   20   0.084100  4.894956e+01  2.017983e+01  2.698360e+01  # H0J DPE
     63       3   21   0.083700  4.912760e+01  2.176032e+01  2.776801e+01  # H0K DPE
     64       4    1  -0.396200  2.381184e+01  1.198501e+01  1.298079e+01  # O00 DPE
     65       4    2   0.015800  2.430210e+01  1.074987e+01  1.353548e+01  # C01 DPE
     66       4    3   0.015800  2.414752e+01  1.218630e+01  1.159546e+01  # C02 DPE
     67       4    4  -0.182700  2.391183e+01  1.059470e+01  1.501983e+01  # C03 DPE
     68       4    5  -0.182700  2.359356e+01  1.352376e+01  1.106011e+01  # C04 DPE
     69       4    6  -0.236100  2.443392e+01  9.269378e+00  1.562074e+01  # C05 DPE
     70       4    7  -0.236100  2.395242e+01  1.374602e+01  9.573801e+00  # C06 DPE
     71       4    8   0.072500  2.539324e+01  1.071932e+01  1.345841e+01  # H07 DPE
     72       4    9   0.072500  2.388678e+01  9.905279e+00  1.297722e+01  # H08 DPE
     73       4   10   0.072500  2.373082e+01  1.137296e+01  1.099378e+01  # H09 DPE
     74       4   11   0.072500  2.523525e+01  1.218943e+01  1.147698e+01  # H0A DPE
     75       4   12   0.102000  2.282303e+01  1.062547e+01  1.511347e+01  # H0B DPE
     76       4   13   0.102000  2.432053e+01  1.143220e+01  1.559150e+01  # H0C DPE
     77       4   14   0.102000  2.399984e+01  1.434679e+01  1.165362e+01  # H0D DPE
     78       4   15   0.102000  2.250632e+01  1.353521e+01  1.117168e+01  # H0E DPE
     79       4   16   0.084100  2.414520e+01  9.187086e+00  1.666879e+01  # H0F DPE
     80       4   17   0.084100  2.401965e+01  8.414166e+00  1.508205e+01  # H0G DPE
     81       4   18   0.084100  2.552355e+01  9.223346e+00  1.555985e+01  # H0H DPE
     82       4   19   0.084100  2.354796e+01  1.469620e+01  9.222544e+00  # H0I DPE
     83       4   20   0.084100  2.503615e+01  1.376350e+01  9.438889e+00  # H0J DPE
     84       4   21   0.083700  2.353809e+01  1.294696e+01  8.955082e+00  # H0K DPE
     85       5    1  -0.396200  4.019495e+01  3.683040e+01  2.455477e+01  # O00 DPE
     86       5    2   0.015800  3.921100e+01  3.720218e+01  2.357129e+01  # C01 DPE
     87       5    3   0.015800  4.135001e+01  3.768881e+01  2.459046e+01  # C02 DPE
     88       5    4  -0.182700  3.800152e+01  3.624472e+01  2.358188e+01  # C03 DPE
     89       5    5  -0.182700  4.236449e+01  3.724009e+01  2.566365e+01  # C04 DPE
     90       5    6  -0.236100  3.694052e+01  3.663977e+01  2.252909e+01  # C05 DPE
     91       5    7  -0.236100  4.360742e+01  3.815698e+01  2.570528e+01  # C06 DPE
     92       5    8   0.072500  3.966131e+01  3.718160e+01  2.257416e+01  # H07 DPE
     93       5    9   0.072500  3.885286e+01  3.821613e+01  2.377408e+01  # H08 DPE
     94       5   10   0.072500  4.103995e+01  3.871406e+01  2.481384e+01  # H09 DPE
     95       5   11   0.072500  4.184793e+01  3.767661e+01  2.361622e+01  # H0A DPE
     96       5   12   0.102000  3.754157e+01  3.625270e+01  2.457364e+01  # H0B DPE
     97       5   13   0.102000  3.834378e+01  3.522619e+01  2.338008e+01  # H0C DPE
     98       5   14   0.102000  4.268219e+01  3.621533e+01  2.545478e+01  # H0D DPE
     99       5   15   0.102000  4.188085e+01  3.724760e+01  2.664380e+01  # H0E DPE
    100       5   16   0.084100  3.609947e+01  3.594670e+01  2.255800e+01  # H0F DPE
    101       5   17   0.084100  3.656317e+01  3.764628e+01  2.272340e+01  # H0G DPE
    102       5   18   0.084100  3.736960e+01  3.661773e+01  2.152483e+01  # H0H DPE
    103       5   19   0.084100  4.430520e+01  3.781770e+01  2.647196e+01  # H0I DPE
    104       5   20   0.084100  4.412386e+01  3.814768e+01  2.474290e+01  # H0J DPE
    105       5   21   0.083700  4.331869e+01  3.918506e+01  2.593476e+01  # H0K DPE
    106       6    1  -0.396200  4.541630e+01  1.283173e+01  3.952434e+01  # O00 DPE
    107       6    2   0.015800  4.466819e+01  1.398531e+01  3.995233e+01  # C01 DPE
    108       6    3   0.015800  4.491103e+01  1.220852e+01  3.832908e+01  # C02 DPE
    109       6    4  -0.182700  4.525739e+01  1.460510e+01  4.123622e+01  # C03 DPE
    110       6    5  -0.182700  4.575473e+01  1.098190e+01  3.792184e+01  # C04 DPE
    111       6    6  -0.236100  4.445940e+01  1.584542e+01  4.169989e+01  # C05 DPE
    112       6    7  -0.236100  4.521585e+01  1.030775e+01  3.664027e+01  # C06 DPE
    113       6    8   0.072500  4.363073e+01  1.369864e+01  4.014973e+01  # H07 DPE
    114       6    9   0.072500  4.467896e+01  1.474416e+01  3.916396e+01  # H08 DPE
    115       6   10   0.072500  4.492502e+01  1.292787e+01  3.750474e+01  # H09 DPE
    116       6   11   0.072500  4.387983e+01  1.188115e+01  3.849235e+01  # H0A DPE
    117       6   12   0.102000  4.629583e+01  1.489507e+01  4.105519e+01  # H0B DPE
    118       6   13   0.102000  4.525299e+01  1.385800e+01  4.203438e+01  # H0C DPE
    119       6   14   0.102000  4.575199e+01  1.025434e+01  3.873753e+01  # H0D DPE
    120       6   15   0.102000  4.678885e+01  1.129386e+01  3.775475e+01  # H0E DPE
    121       6   16   0.084100  4.489640e+01  1.626125e+01  4.260800e+01  # H0F DPE
    122       6   17   0.084100  4.446944e+01  1.661872e+01  4.092846e+01  # H0G DPE
    123       6   18   0.084100  4.342139e+01  1.557758e+01  4.190949e+01  # H0H DPE
    124       6   19   0.084100  4.583078e+01  9.446519e+00  3.637583e+01  # H0I DPE
    125       6   20   0.084100  4.418990e+01  9.964033e+00  3.678951e+01  # H0J DPE
    126       6   21   0.083700  4.522903e+01  1.100894e+01  3.580292e+01  # H0K DPE
    127       7    1  -0.396200  3.805527e+01  1.941893e+01  2.320129e+01  # O00 DPE
    128       7    2   0.015800  3.901508e+01  1.840350e+01  2.354956e+01  # C01 DPE
    129       7    3   0.015800  3.856302e+01  2.076391e+01  2.327569e+01  # C02 DPE
    130       7    4  -0.182700  3.841065e+01  1.698758e+01  2.345208e+01  # C03 DPE
    131       7    5  -0.182700  3.748965e+01  2.180378e+01  2.288991e+01  # C04 DPE
    132       7    6  -0.236100  3.943703e+01  1.589259e+01  2.382315e+01  # C05 DPE
    133       7    7  -0.236100  3.802862e+01  2.324961e+01  2.296971e+01  # C06 DPE
    134       7    8   0.072500  3.936337e+01  1.856244e+01  2.457469e+01  # H07 DPE
    135       7    9   0.072500  3.987386e+01  1.846163e+01  2.287384e+01  # H08 DPE
    136       7   10   0.072500  3.941302e+01  2.087465e+01  2.259567e+01  # H09 DPE
    137       7   11   0.072500  3.889903e+01  2.097463e+01  2.429545e+01  # H0A DPE
    138       7   12   0.102000  3.805570e+01  1.681438e+01  2.243266e+01  # H0B DPE
    139       7   13   0.102000  3.755049e+01  1.691371e+01  2.412285e+01  # H0C DPE
    140       7   14   0.102000  3.663203e+01  2.170373e+01  2.356010e+01  # H0D DPE
    141       7   15   0.102000  3.714414e+01  2.160598e+01  2.187199e+01  # H0E DPE
    142       7   16   0.084100  3.898321e+01  1.490427e+01  2.374692e+01  # H0F DPE
    143       7   17   0.084100  4.029690e+01  1.592867e+01  2.315045e+01  # H0G DPE
    144       7   18   0.084100  3.979138e+01  1.602995e+01  2.484721e+01  # H0H DPE
    145       7   19   0.084100  3.725074e+01  2.396173e+01  2.269118e+01  # H0I DPE
    146       7   20   0.084100  3.835820e+01  2.348108e+01  2.398498e+01  # H0J DPE
    147       7   21   0.083700  3.887421e+01  2.338221e+01  2.229119e+01  # H0K DPE
    148       8    1  -0.396200  4.818765e+01  3.794788e+01  3.517985e+01  # O00 DPE
    149       8    2   0.015800  4.744169e+01  3.914975e+01  3.491031e+01  # C01 DPE
    150       8    3   0.015800  4.739501e+01  3.686211e+01  3.569480e+01  # C02 DPE
    151       8    4  -0.182700  4.834590e+01  4.027371e+01  3.436370e+01  # C03 DPE
    152       8    5  -0.182700  4.824966e+01  3.560477e+01  3.596110e+01  # C04 DPE
    153       8    6  -0.236100  4.755031e+01  4.156649e+01  3.407058e+01  # C05 DPE
    154       8    7  -0.236100  4.740427e+01  3.443644e+01  3.651575e+01  # C06 DPE
    155       8    8   0.072500  4.696732e+01  3.950274e+01  3.583109e+01  # H07 DPE
    156       8    9   0.072500  4.666210e+01  3.894106e+01  3.417127e+01  # H08 DPE
    157       8   10   0.072500  4.661296e+01  3.660340e+01  3.497463e+01  # H09 DPE
    158       8   11   0.072500  4.692186e+01  3.716483e+01  3.663379e+01  # H0A DPE
    159       8   12   0.102000  4.882927e+01  3.993482e+01  3.344352e+01  # H0B DPE
    160       8   13   0.102000  4.913072e+01  4.049408e+01  3.509222e+01  # H0C DPE
    161       8   14   0.102000  4.903777e+01  3.584856e+01  3.667813e+01  # H0D DPE
    162       8   15   0.102000  4.872906e+01  3.528988e+01  3.503068e+01  # H0E DPE
    163       8   16   0.084100  4.821327e+01  4.234254e+01  3.368748e+01  # H0F DPE
    164       8   17   0.084100  4.677417e+01  4.137887e+01  3.332519e+01  # H0G DPE
    165       8   18   0.084100  4.707485e+01  4.193916e+01  3.498063e+01  # H0H DPE
    166       8   19   0.084100  4.803255e+01  3.356258e+01  3.669302e+01  # H0I DPE
    167       8   20   0.084100  4.693329e+01  3.471778e+01  3.746021e+01  # H0J DPE
    168       8   21   0.083700  4.662160e+01  3.415824e+01  3.580650e+01  # H0K DPE
    169       9    1  -0.396200  2.187497e+00  1.845646e+01  4.770730e+00  # O00 DPE
    170       9    2   0.015800  2.040297e+00  1.981213e+01  4.308024e+00  # C01 DPE
    171       9    3   0.015800  1.963169e+00  1.828507e+01  6.182338e+00  # C02 DPE
    172       9    4  -0.182700  2.294573e+00  1.992956e+01  2.791045e+00  # C03 DPE
    173       9    5  -0.182700  2.133592e+00  1.681336e+01  6.615102e+00  # C04 DPE
    174       9    6  -0.236100  2.136238e+00  2.138276e+01  2.287757e+00  # C05 DPE
    175       9    7  -0.236100  1.895691e+00  1.662369e+01  8.129937e+00  # C06 DPE
    176       9    8   0.072500  2.752113e+00  2.045860e+01  4.830383e+00  # H07 DPE
    177       9    9   0.072500  1.025898e+00  2.016464e+01  4.518286e+00  # H08 DPE
    178       9   10   0.072500  9.479730e-01  1.860534e+01  6.435297e+00  # H09 DPE
    179       9   11   0.072500  2.675023e+00  1.889647e+01  6.745076e+00  # H0A DPE
    180       9   12   0.102000  1.591405e+00  1.928673e+01  2.254822e+00  # H0B DPE
    181       9   13   0.102000  3.305793e+00  1.958087e+01  2.564985e+00  # H0C DPE
    182       9   14   0.102000  3.143766e+00  1.647809e+01  6.366446e+00  # H0D DPE
    183       9   15   0.102000  1.427709e+00  1.618956e+01  6.060793e+00  # H0E DPE
    184       9   16   0.084100  2.322479e+00  2.143619e+01  1.214908e+00  # H0F DPE
    185       9   17   0.084100  1.124514e+00  2.174728e+01  2.479442e+00  # H0G DPE
    186       9   18   0.084100  2.844704e+00  2.204315e+01  2.792828e+00  # H0H DPE
    187       9   19   0.084100  2.021239e+00  1.557611e+01  8.406730e+00  # H0I DPE
    188       9   20   0.084100  2.606284e+00  1.721884e+01  8.707721e+00  # H0J DPE
    189       9   21   0.083700  8.833900e-01  1.693138e+01  8.401157e+00  # H0K DPE
    190      10    1  -0.396200  4.012377e+01  1.607473e+01  3.421338e+01  # O00 DPE
    191      10    2   0.015800  3.915927e+01  1.505893e+01  3.454730e+01  # C01 DPE
    192      10    3   0.015800  4.113821e+01  1.564599e+01  3.328632e+01  # C02 DPE
    193      10    4  -0.182700  3.810254e+01  1.557893e+01  3.554359e+01  # C03 DPE
    194      10    5  -0.182700  4.213841e+01  1.677752e+01  3.296772e+01  # C04 DPE
    195      10    6  -0.236100  3.706287e+01  1.449319e+01  3.590473e+01  # C05 DPE
    196      10    7  -0.236100  4.323081e+01  1.632242e+01  3.197431e+01  # C06 DPE
    197      10    8   0.072500  3.966874e+01  1.420156e+01  3.499766e+01  # H07 DPE
    198      10    9   0.072500  3.864650e+01  1.472581e+01  3.363979e+01  # H08 DPE
    199      10   10   0.072500  4.067001e+01  1.532389e+01  3.235133e+01  # H09 DPE
    200      10   11   0.072500  4.169206e+01  1.480312e+01  3.371060e+01  # H0A DPE
    201      10   12   0.102000  3.758571e+01  1.643826e+01  3.510813e+01  # H0B DPE
    202      10   13   0.102000  3.860023e+01  1.591554e+01  3.645696e+01  # H0C DPE
    203      10   14   0.102000  4.261319e+01  1.711171e+01  3.389378e+01  # H0D DPE
    204      10   15   0.102000  4.159897e+01  1.762757e+01  3.254221e+01  # H0E DPE
    205      10   16   0.084100  3.633065e+01  1.488719e+01  3.660982e+01  # H0F DPE
    206      10   17   0.084100  3.653273e+01  1.415693e+01  3.501082e+01  # H0G DPE
    207      10   18   0.084100  3.755203e+01  1.363085e+01  3.636325e+01  # H0H DPE
    208      10   19   0.084100  4.392143e+01  1.714081e+01  3.176680e+01  # H0I DPE
    209      10   20   0.084100  4.380180e+01  1.548790e+01  3.238726e+01  # H0J DPE
    210      10   21   0.083700  4.278288e+01  1.600368e+01  3.103051e+01  # H0K DPE
    211      11    1  -0.396200  1.106868e+01  2.409963e+01  2.939177e+01  # O00 DPE
    212      11    2   0.015800  1.084886e+01  2.283536e+01  2.873838e+01  # C01 DPE
    213      11    3   0.015800  1.219475e+01  2.411470e+01  3.028846e+01  # C02 DPE
    214      11    4  -0.182700  9.629695e+00  2.288366e+01  2.779446e+01  # C03 DPE
    215      11    5  -0.182700  1.237830e+01  2.549482e+01  3.095469e+01  # C04 DPE
    216      11    6  -0.236100  9.389506e+00  2.152941e+01  2.708843e+01  # C05 DPE
    217      11    7  -0.236100  1.358470e+01  2.551638e+01  3.191979e+01  # C06 DPE
    218      11    8   0.072500  1.067604e+01  2.205824e+01  2.948916e+01  # H07 DPE
    219      11    9   0.072500  1.173211e+01  2.256615e+01  2.815111e+01  # H08 DPE
    220      11   10   0.072500  1.310793e+01  2.387203e+01  2.973674e+01  # H09 DPE
    221      11   11   0.072500  1.204970e+01  2.336711e+01  3.107413e+01  # H0A DPE
    222      11   12   0.102000  9.786720e+00  2.365803e+01  2.703889e+01  # H0B DPE
    223      11   13   0.102000  8.737998e+00  2.315141e+01  2.836756e+01  # H0C DPE
    224      11   14   0.102000  1.147187e+01  2.575228e+01  3.150858e+01  # H0D DPE
    225      11   15   0.102000  1.252483e+01  2.625297e+01  3.018113e+01  # H0E DPE
    226      11   16   0.084100  8.522862e+00  2.159212e+01  2.642999e+01  # H0F DPE
    227      11   17   0.084100  1.025804e+01  2.125040e+01  2.648760e+01  # H0G DPE
    228      11   18   0.084100  9.207242e+00  2.074107e+01  2.782221e+01  # H0H DPE
    229      11   19   0.084100  1.369099e+01  2.650224e+01  3.237429e+01  # H0I DPE
    230      11   20   0.084100  1.345096e+01  2.478306e+01  3.271813e+01  # H0J DPE
    231      11   21   0.083700  1.450830e+01  2.528352e+01  3.138525e+01  # H0K DPE
    232      12    1  -0.396200  5.866156e+00  1.535600e+01  8.248236e+00  # O00 DPE
    233      12    2   0.015800  5.747434e+00  1.676614e+01  8.514750e+00  # C01 DPE
    234      12    3   0.015800  6.187927e+00  1.503679e+01  6.881890e+00  # C02 DPE
    235      12    4  -0.182700  5.400492e+00  1.704178e+01  9.992359e+00  # C03 DPE
    236      12    5  -0.182700  6.302877e+00  1.351354e+01  6.661105e+00  # C04 DPE
    237      12    6  -0.236100  5.273397e+00  1.855446e+01  1.028528e+01  # C05 DPE
    238      12    7  -0.236100  6.646414e+00  1.316487e+01  5.195599e+00  # C06 DPE
    239      12    8   0.072500  4.959507e+00  1.719414e+01  7.887497e+00  # H07 DPE
    240      12    9   0.072500  6.692601e+00  1.726567e+01  8.281077e+00  # H08 DPE
    241      12   10   0.072500  7.141736e+00  1.549923e+01  6.610631e+00  # H09 DPE
    242      12   11   0.072500  5.408206e+00  1.542512e+01  6.219731e+00  # H0A DPE
    243      12   12   0.102000  6.178576e+00  1.661764e+01  1.063259e+01  # H0B DPE
    244      12   13   0.102000  4.456979e+00  1.654871e+01  1.024119e+01  # H0C DPE
    245      12   14   0.102000  5.356878e+00  1.303682e+01  6.930389e+00  # H0D DPE
    246      12   15   0.102000  7.079350e+00  1.311090e+01  7.316562e+00  # H0E DPE
    247      12   16   0.084100  5.026976e+00  1.871940e+01  1.133438e+01  # H0F DPE
    248      12   17   0.084100  6.212874e+00  1.906774e+01  1.006819e+01  # H0G DPE
    249      12   18   0.084100  4.485429e+00  1.899900e+01  9.673207e+00  # H0H DPE
    250      12   19   0.084100  6.722500e+00  1.208411e+01  5.069257e+00  # H0I DPE
    251      12   20   0.084100  5.871566e+00  1.353554e+01  4.520921e+00  # H0J DPE
    252      12   21   0.083700  7.600523e+00  1.361203e+01  4.908011e+00  # H0K DPE
    253      13    1  -0.396200  1.841896e+01  2.035057e+00  3.173069e+01  # O00 DPE
    254      13    2   0.015800  1.972850e+01  2.206497e+00  3.115685e+01  # C01 DPE
    255      13    3   0.015800  1.841179e+01  1.920376e+00  3.316565e+01  # C02 DPE
    256      13    4  -0.182700  1.966889e+01  2.321058e+00  2.961965e+01  # C03 DPE
    257      13    5  -0.182700  1.698217e+01  1.740847e+00  3.371902e+01  # C04 DPE
    258      13    6  -0.236100  2.107197e+01  2.507128e+00  2.899762e+01  # C05 DPE
    259      13    7  -0.236100  1.696852e+01  1.615391e+00  3.525895e+01  # C06 DPE
    260      13    8   0.072500  2.035917e+01  1.350890e+00  3.141699e+01  # H07 DPE
    261      13    9   0.072500  2.018863e+01  3.115958e+00  3.155515e+01  # H08 DPE
    262      13   10   0.072500  1.884435e+01  2.822235e+00  3.360919e+01  # H09 DPE
    263      13   11   0.072500  1.901178e+01  1.057094e+00  3.346893e+01  # H0A DPE
    264      13   12   0.102000  1.903968e+01  3.171430e+00  2.934368e+01  # H0B DPE
    265      13   13   0.102000  1.921124e+01  1.418271e+00  2.920640e+01  # H0C DPE
    266      13   14   0.102000  1.653561e+01  8.437280e-01  3.328261e+01  # H0D DPE
    267      13   15   0.102000  1.637021e+01  2.597065e+00  3.342396e+01  # H0E DPE
    268      13   16   0.084100  2.099990e+01  2.583762e+00  2.791250e+01  # H0F DPE
    269      13   17   0.084100  2.154188e+01  3.417767e+00  2.937593e+01  # H0G DPE
    270      13   18   0.084100  2.171497e+01  1.658103e+00  2.924020e+01  # H0H DPE